BEGIN_CFG
 Size
    32
 Supercell
         8.080400      0.000000      0.000000
         0.000000      8.080400      0.000000
         0.000000      0.000000      8.080400
 AtomData:  id type       cartes_x      cartes_y      cartes_z           fx          fy          fz
             1    0       0.000000      0.000000      0.000000    -0.000022   -0.000003   -0.000002
             2    0       0.000000      2.020100      2.020100    -0.000005   -0.000010   -0.000005
             3    0       2.020100      0.000000      2.020100    -0.000009   -0.000005   -0.000015
             4    0       2.020100      2.020100      0.000000     0.000009   -0.000005   -0.000008
             5    0       4.040200      0.000000      0.000000     0.000003   -0.000003   -0.000005
             6    0       4.040200      2.020100      2.020100     0.000008   -0.000001   -0.000018
             7    0       6.060300      0.000000      2.020100     0.000009   -0.000006   -0.000017
             8    0       6.060300      2.020100      0.000000     0.000006   -0.000015   -0.000008
             9    0       0.000000      4.040200      0.000000    -0.000010    0.000004   -0.000006
            10    0       0.000000      6.060300      2.020100    -0.000009    0.000018   -0.000018
            11    0       2.020100      4.040200      2.020100    -0.000005   -0.000001   -0.000015
            12    0       2.020100      6.060300      0.000000     0.000008    0.000004   -0.000007
            13    0       0.000000      0.000000      4.040200    -0.000010   -0.000001    0.000008
            14    0       0.000000      2.020100      6.060300    -0.000016   -0.000009   -0.000003
            15    0       2.020100      0.000000      6.060300     0.000010    0.000001    0.000002
            16    0       2.020100      2.020100      4.040200    -0.000008   -0.000003    0.000013
            17    0       0.000000      4.040200      4.040200    -0.000017   -0.000008    0.000014
            18    0       0.000000      6.060300      6.060300    -0.000018    0.000010    0.000006
            19    0       2.020100      4.040200      6.060300     0.000015   -0.000001    0.000015
            20    0       2.020100      6.060300      4.040200     0.000008    0.000017    0.000014
            21    0       4.040200      4.040200      0.000000    -0.000001    0.000005   -0.000007
            22    0       4.040200      6.060300      2.020100     0.000007    0.000010   -0.000012
            23    0       6.060300      4.040200      2.020100    -0.000003   -0.000001   -0.000009
            24    0       6.060300      6.060300      0.000000     0.000008    0.000009   -0.000006
            25    0       4.040200      0.000000      4.040200    -0.000003   -0.000007    0.000019
            26    0       4.040200      2.020100      6.060300    -0.000006   -0.000010    0.000011
            27    0       6.060300      0.000000      6.060300     0.000018    0.000000    0.000015
            28    0       6.060300      2.020100      4.040200     0.000016   -0.000005    0.000009
            29    0       4.040200      4.040200      4.040200     0.000006    0.000010    0.000012
            30    0       4.040200      6.060300      6.060300    -0.000009    0.000003    0.000003
            31    0       6.060300      4.040200      6.060300     0.000012    0.000004    0.000008
            32    0       6.060300      6.060300      4.040200     0.000005    0.000005    0.000010
 Energy
       -119.295690170000
 PlusStress:  xx          yy          zz          yz          xz          xy
         2.74240     2.74242     2.74242     0.00004     0.00002    -0.00001
 Feature   EFS_by	VASP
END_CFG

BEGIN_CFG
 Size
    32
 Supercell
         8.080400      0.000000      0.000000
         0.000000      8.080400      0.000000
         0.000000      0.000000      8.080400
 AtomData:  id type       cartes_x      cartes_y      cartes_z           fx          fy          fz
             1    0       8.080360      8.078010      8.076220    -0.007489    0.010579    0.010876
             2    0       8.079070      2.021070      2.021110     0.000641   -0.007577    0.001915
             3    0       2.019960      0.003140      2.026170     0.003247   -0.007537   -0.018974
             4    0       2.019520      2.019050      0.002250     0.003636    0.001503   -0.003960
             5    0       4.038820      0.001140      8.080170     0.002276   -0.000114    0.001969
             6    0       4.041910      2.020800      2.021190    -0.009315    0.003483    0.001462
             7    0       6.060630      0.006040      2.020810     0.007578   -0.017405    0.001123
             8    0       6.056690      2.018560      0.004420     0.016842    0.002338   -0.019552
             9    0       8.077500      4.040910      8.074510     0.003815   -0.008050    0.016131
            10    0       8.077820      6.061380      2.020360     0.005346   -0.006600    0.001233
            11    0       2.019490      4.044140      2.014290     0.001377   -0.013972    0.018695
            12    0       2.016680      6.060950      8.078260     0.008662    0.002066    0.002371
            13    0       0.004230      8.079800      4.045750    -0.015192    0.009177   -0.014676
            14    0       0.003000      2.020110      6.059950    -0.012629    0.001700    0.006125
            15    0       2.018990      0.000350      6.063150     0.009257    0.004811   -0.010620
            16    0       2.021750      2.022200      4.038510    -0.006006    0.000492    0.002708
            17    0       8.077240      4.036780      4.042580     0.007644    0.008453   -0.010012
            18    0       8.076310      6.058630      6.060180     0.005658    0.003975   -0.004185
            19    0       2.019780      4.040550      6.062890     0.001854    0.001373   -0.008077
            20    0       2.021650      6.062380      4.034940     0.001118   -0.011257    0.014705
            21    0       4.036900      4.034110      8.076370     0.004784    0.021683    0.005299
            22    0       4.041160      6.055750      2.020670    -0.005341    0.013743   -0.004213
            23    0       6.061160      4.037570      2.019140     0.004301   -0.000435    0.004642
            24    0       6.068860      6.054820      0.004300    -0.026958    0.015427   -0.015038
            25    0       4.042030      0.000970      4.040180    -0.009327    0.000455   -0.000251
            26    0       4.037850      2.025670      6.060660     0.000093   -0.023587    0.001602
            27    0       6.059370      0.002240      6.058650     0.008897   -0.007491    0.014524
            28    0       6.063590      2.014920      4.044150    -0.000736    0.015528   -0.009324
            29    0       4.041410      4.039170      4.042460    -0.005519    0.004560   -0.007590
            30    0       4.039880      6.066520      6.056770     0.002374   -0.022979    0.012694
            31    0       6.061480      4.039100      6.060930    -0.001484   -0.000179   -0.003642
            32    0       6.062100      6.058770      4.034790     0.000589    0.005830    0.012041
 Energy
       -119.294435420000
 PlusStress:  xx          yy          zz          yz          xz          xy
         2.74892     2.74419     2.73889    -0.00158     0.00178    -0.00050
 Feature   EFS_by	VASP
END_CFG

BEGIN_CFG
 Size
    32
 Supercell
         8.080400      0.000000      0.000000
         0.000000      8.080400      0.000000
         0.000000      0.000000      8.080400
 AtomData:  id type       cartes_x      cartes_y      cartes_z           fx          fy          fz
             1    0       8.080320      8.075620      8.072040    -0.015354    0.021833    0.021967
             2    0       8.077750      2.022040      2.022130     0.002384   -0.014106    0.003573
             3    0       2.019820      0.006290      2.032220     0.005916   -0.014563   -0.039078
             4    0       2.018950      2.018010      0.004500     0.006026    0.003393   -0.007826
             5    0       4.037430      0.002280      8.079940     0.005258   -0.000987    0.004076
             6    0       4.043620      2.021490      2.022290    -0.019234    0.007859    0.002950
             7    0       6.060970      0.012080      2.021520     0.014781   -0.036510    0.001258
             8    0       6.053090      2.017010      0.008830     0.033923    0.005167   -0.039907
             9    0       8.074600      4.041610      8.068630     0.009144   -0.017704    0.032698
            10    0       8.075250      6.062460      2.020630     0.011811   -0.013432    0.003085
            11    0       2.018870      4.048080      2.008490     0.001446   -0.028884    0.036909
            12    0       2.013260      6.061600      8.076110     0.017381    0.003698    0.004415
            13    0       0.008460      8.079190      4.051290    -0.030313    0.018424   -0.028925
            14    0       0.006000      2.020120      6.059600    -0.024789    0.003816    0.012099
            15    0       2.017890      0.000690      6.065990     0.018037    0.009619   -0.020779
            16    0       2.023390      2.024300      4.036820    -0.012548    0.002131    0.006205
            17    0       8.074080      4.033360      4.044960     0.015702    0.017009   -0.020019
            18    0       8.072220      6.056970      6.060070     0.011292    0.007459   -0.009469
            19    0       2.019470      4.040910      6.065470     0.003014    0.002779   -0.016378
            20    0       2.023190      6.064450      4.029690     0.001061   -0.023212    0.029905
            21    0       4.033600      4.028020      8.072350     0.010765    0.043892    0.011288
            22    0       4.042120      6.051210      2.021240    -0.008783    0.027290   -0.009847
            23    0       6.062020      4.034940      2.018190     0.008473    0.000025    0.008663
            24    0       6.077420      6.049340      0.008590    -0.056299    0.031118   -0.030102
            25    0       4.043860      0.001930      4.040170    -0.018201    0.000929   -0.000601
            26    0       4.035500      2.031230      6.061020     0.000332   -0.047079    0.002998
            27    0       6.058440      0.004480      6.057010     0.017833   -0.015284    0.030101
            28    0       6.066880      2.009750      4.048090    -0.001008    0.031820   -0.018452
            29    0       4.042610      4.038140      4.044720    -0.010838    0.008897   -0.014946
            30    0       4.039560      6.072740      6.053250     0.005319   -0.046620    0.025803
            31    0       6.062660      4.038000      6.061560    -0.003853   -0.000049   -0.006464
            32    0       6.063900      6.057240      4.029390     0.001314    0.011266    0.024807
 Energy
       -119.290631400000
 PlusStress:  xx          yy          zz          yz          xz          xy
         2.77004     2.74833     2.73231    -0.00608     0.00699    -0.00188
 Feature   EFS_by	VASP
END_CFG
