BEGIN_CFG
 Size
    32
 Supercell
         8.080400      0.000000      0.000000
         0.000000      8.080400      0.000000
         0.000000      0.000000      8.080400
 AtomData:  id type       cartes_x      cartes_y      cartes_z           fx          fy          fz
             1    0       0.000000      0.000000      0.000000    -0.000022   -0.000003   -0.000002
             2    0       0.000000      2.020100      2.020100    -0.000005   -0.000010   -0.000005
             3    0       2.020100      0.000000      2.020100    -0.000009   -0.000005   -0.000015
             4    0       2.020100      2.020100      0.000000     0.000009   -0.000005   -0.000008
             5    0       4.040200      0.000000      0.000000     0.000003   -0.000003   -0.000005
             6    0       4.040200      2.020100      2.020100     0.000008   -0.000001   -0.000018
             7    0       6.060300      0.000000      2.020100     0.000009   -0.000006   -0.000017
             8    0       6.060300      2.020100      0.000000     0.000006   -0.000015   -0.000008
             9    0       0.000000      4.040200      0.000000    -0.000010    0.000004   -0.000006
            10    0       0.000000      6.060300      2.020100    -0.000009    0.000018   -0.000018
            11    0       2.020100      4.040200      2.020100    -0.000005   -0.000001   -0.000015
            12    0       2.020100      6.060300      0.000000     0.000008    0.000004   -0.000007
            13    0       0.000000      0.000000      4.040200    -0.000010   -0.000001    0.000008
            14    0       0.000000      2.020100      6.060300    -0.000016   -0.000009   -0.000003
            15    0       2.020100      0.000000      6.060300     0.000010    0.000001    0.000002
            16    0       2.020100      2.020100      4.040200    -0.000008   -0.000003    0.000013
            17    0       0.000000      4.040200      4.040200    -0.000017   -0.000008    0.000014
            18    0       0.000000      6.060300      6.060300    -0.000018    0.000010    0.000006
            19    0       2.020100      4.040200      6.060300     0.000015   -0.000001    0.000015
            20    0       2.020100      6.060300      4.040200     0.000008    0.000017    0.000014
            21    0       4.040200      4.040200      0.000000    -0.000001    0.000005   -0.000007
            22    0       4.040200      6.060300      2.020100     0.000007    0.000010   -0.000012
            23    0       6.060300      4.040200      2.020100    -0.000003   -0.000001   -0.000009
            24    0       6.060300      6.060300      0.000000     0.000008    0.000009   -0.000006
            25    0       4.040200      0.000000      4.040200    -0.000003   -0.000007    0.000019
            26    0       4.040200      2.020100      6.060300    -0.000006   -0.000010    0.000011
            27    0       6.060300      0.000000      6.060300     0.000018    0.000000    0.000015
            28    0       6.060300      2.020100      4.040200     0.000016   -0.000005    0.000009
            29    0       4.040200      4.040200      4.040200     0.000006    0.000010    0.000012
            30    0       4.040200      6.060300      6.060300    -0.000009    0.000003    0.000003
            31    0       6.060300      4.040200      6.060300     0.000012    0.000004    0.000008
            32    0       6.060300      6.060300      4.040200     0.000005    0.000005    0.000010
 Energy
       -119.295690170000
 PlusStress:  xx          yy          zz          yz          xz          xy
         2.74240     2.74242     2.74242     0.00004     0.00002    -0.00001
 Feature   EFS_by	VASP
END_CFG
