BEGIN_CFG
 Size
    32
 Supercell
         8.080400      0.000000      0.000000
         0.000000      8.080400      0.000000
         0.000000      0.000000      8.080400
 AtomData:  id type       cartes_x      cartes_y      cartes_z           fx          fy          fz
             1    0       0.000000      0.000000      0.000000    -0.000022   -0.000003   -0.000002
             2    0       0.000000      2.020100      2.020100    -0.000005   -0.000010   -0.000005
             3    0       2.020100      0.000000      2.020100    -0.000009   -0.000005   -0.000015
             4    0       2.020100      2.020100      0.000000     0.000009   -0.000005   -0.000008
             5    0       4.040200      0.000000      0.000000     0.000003   -0.000003   -0.000005
             6    0       4.040200      2.020100      2.020100     0.000008   -0.000001   -0.000018
             7    0       6.060300      0.000000      2.020100     0.000009   -0.000006   -0.000017
             8    0       6.060300      2.020100      0.000000     0.000006   -0.000015   -0.000008
             9    0       0.000000      4.040200      0.000000    -0.000010    0.000004   -0.000006
            10    0       0.000000      6.060300      2.020100    -0.000009    0.000018   -0.000018
            11    0       2.020100      4.040200      2.020100    -0.000005   -0.000001   -0.000015
            12    0       2.020100      6.060300      0.000000     0.000008    0.000004   -0.000007
            13    0       0.000000      0.000000      4.040200    -0.000010   -0.000001    0.000008
            14    0       0.000000      2.020100      6.060300    -0.000016   -0.000009   -0.000003
            15    0       2.020100      0.000000      6.060300     0.000010    0.000001    0.000002
            16    0       2.020100      2.020100      4.040200    -0.000008   -0.000003    0.000013
            17    0       0.000000      4.040200      4.040200    -0.000017   -0.000008    0.000014
            18    0       0.000000      6.060300      6.060300    -0.000018    0.000010    0.000006
            19    0       2.020100      4.040200      6.060300     0.000015   -0.000001    0.000015
            20    0       2.020100      6.060300      4.040200     0.000008    0.000017    0.000014
            21    0       4.040200      4.040200      0.000000    -0.000001    0.000005   -0.000007
            22    0       4.040200      6.060300      2.020100     0.000007    0.000010   -0.000012
            23    0       6.060300      4.040200      2.020100    -0.000003   -0.000001   -0.000009
            24    0       6.060300      6.060300      0.000000     0.000008    0.000009   -0.000006
            25    0       4.040200      0.000000      4.040200    -0.000003   -0.000007    0.000019
            26    0       4.040200      2.020100      6.060300    -0.000006   -0.000010    0.000011
            27    0       6.060300      0.000000      6.060300     0.000018    0.000000    0.000015
            28    0       6.060300      2.020100      4.040200     0.000016   -0.000005    0.000009
            29    0       4.040200      4.040200      4.040200     0.000006    0.000010    0.000012
            30    0       4.040200      6.060300      6.060300    -0.000009    0.000003    0.000003
            31    0       6.060300      4.040200      6.060300     0.000012    0.000004    0.000008
            32    0       6.060300      6.060300      4.040200     0.000005    0.000005    0.000010
 Energy
       -119.295690170000
 PlusStress:  xx          yy          zz          yz          xz          xy
         2.74240     2.74242     2.74242     0.00004     0.00002    -0.00001
 Feature   EFS_by	VASP
END_CFG

BEGIN_CFG
 Size
    32
 Supercell
         8.080400      0.000000      0.000000
         0.000000      8.080400      0.000000
         0.000000      0.000000      8.080400
 AtomData:  id type       cartes_x      cartes_y      cartes_z           fx          fy          fz
             1    0       8.080360      8.078010      8.076220    -0.007489    0.010579    0.010876
             2    0       8.079070      2.021070      2.021110     0.000641   -0.007577    0.001915
             3    0       2.019960      0.003140      2.026170     0.003247   -0.007537   -0.018974
             4    0       2.019520      2.019050      0.002250     0.003636    0.001503   -0.003960
             5    0       4.038820      0.001140      8.080170     0.002276   -0.000114    0.001969
             6    0       4.041910      2.020800      2.021190    -0.009315    0.003483    0.001462
             7    0       6.060630      0.006040      2.020810     0.007578   -0.017405    0.001123
             8    0       6.056690      2.018560      0.004420     0.016842    0.002338   -0.019552
             9    0       8.077500      4.040910      8.074510     0.003815   -0.008050    0.016131
            10    0       8.077820      6.061380      2.020360     0.005346   -0.006600    0.001233
            11    0       2.019490      4.044140      2.014290     0.001377   -0.013972    0.018695
            12    0       2.016680      6.060950      8.078260     0.008662    0.002066    0.002371
            13    0       0.004230      8.079800      4.045750    -0.015192    0.009177   -0.014676
            14    0       0.003000      2.020110      6.059950    -0.012629    0.001700    0.006125
            15    0       2.018990      0.000350      6.063150     0.009257    0.004811   -0.010620
            16    0       2.021750      2.022200      4.038510    -0.006006    0.000492    0.002708
            17    0       8.077240      4.036780      4.042580     0.007644    0.008453   -0.010012
            18    0       8.076310      6.058630      6.060180     0.005658    0.003975   -0.004185
            19    0       2.019780      4.040550      6.062890     0.001854    0.001373   -0.008077
            20    0       2.021650      6.062380      4.034940     0.001118   -0.011257    0.014705
            21    0       4.036900      4.034110      8.076370     0.004784    0.021683    0.005299
            22    0       4.041160      6.055750      2.020670    -0.005341    0.013743   -0.004213
            23    0       6.061160      4.037570      2.019140     0.004301   -0.000435    0.004642
            24    0       6.068860      6.054820      0.004300    -0.026958    0.015427   -0.015038
            25    0       4.042030      0.000970      4.040180    -0.009327    0.000455   -0.000251
            26    0       4.037850      2.025670      6.060660     0.000093   -0.023587    0.001602
            27    0       6.059370      0.002240      6.058650     0.008897   -0.007491    0.014524
            28    0       6.063590      2.014920      4.044150    -0.000736    0.015528   -0.009324
            29    0       4.041410      4.039170      4.042460    -0.005519    0.004560   -0.007590
            30    0       4.039880      6.066520      6.056770     0.002374   -0.022979    0.012694
            31    0       6.061480      4.039100      6.060930    -0.001484   -0.000179   -0.003642
            32    0       6.062100      6.058770      4.034790     0.000589    0.005830    0.012041
 Energy
       -119.294435420000
 PlusStress:  xx          yy          zz          yz          xz          xy
         2.74892     2.74419     2.73889    -0.00158     0.00178    -0.00050
 Feature   EFS_by	VASP
END_CFG

BEGIN_CFG
 Size
    32
 Supercell
         8.080400      0.000000      0.000000
         0.000000      8.080400      0.000000
         0.000000      0.000000      8.080400
 AtomData:  id type       cartes_x      cartes_y      cartes_z           fx          fy          fz
             1    0       8.080320      8.075620      8.072040    -0.015354    0.021833    0.021967
             2    0       8.077750      2.022040      2.022130     0.002384   -0.014106    0.003573
             3    0       2.019820      0.006290      2.032220     0.005916   -0.014563   -0.039078
             4    0       2.018950      2.018010      0.004500     0.006026    0.003393   -0.007826
             5    0       4.037430      0.002280      8.079940     0.005258   -0.000987    0.004076
             6    0       4.043620      2.021490      2.022290    -0.019234    0.007859    0.002950
             7    0       6.060970      0.012080      2.021520     0.014781   -0.036510    0.001258
             8    0       6.053090      2.017010      0.008830     0.033923    0.005167   -0.039907
             9    0       8.074600      4.041610      8.068630     0.009144   -0.017704    0.032698
            10    0       8.075250      6.062460      2.020630     0.011811   -0.013432    0.003085
            11    0       2.018870      4.048080      2.008490     0.001446   -0.028884    0.036909
            12    0       2.013260      6.061600      8.076110     0.017381    0.003698    0.004415
            13    0       0.008460      8.079190      4.051290    -0.030313    0.018424   -0.028925
            14    0       0.006000      2.020120      6.059600    -0.024789    0.003816    0.012099
            15    0       2.017890      0.000690      6.065990     0.018037    0.009619   -0.020779
            16    0       2.023390      2.024300      4.036820    -0.012548    0.002131    0.006205
            17    0       8.074080      4.033360      4.044960     0.015702    0.017009   -0.020019
            18    0       8.072220      6.056970      6.060070     0.011292    0.007459   -0.009469
            19    0       2.019470      4.040910      6.065470     0.003014    0.002779   -0.016378
            20    0       2.023190      6.064450      4.029690     0.001061   -0.023212    0.029905
            21    0       4.033600      4.028020      8.072350     0.010765    0.043892    0.011288
            22    0       4.042120      6.051210      2.021240    -0.008783    0.027290   -0.009847
            23    0       6.062020      4.034940      2.018190     0.008473    0.000025    0.008663
            24    0       6.077420      6.049340      0.008590    -0.056299    0.031118   -0.030102
            25    0       4.043860      0.001930      4.040170    -0.018201    0.000929   -0.000601
            26    0       4.035500      2.031230      6.061020     0.000332   -0.047079    0.002998
            27    0       6.058440      0.004480      6.057010     0.017833   -0.015284    0.030101
            28    0       6.066880      2.009750      4.048090    -0.001008    0.031820   -0.018452
            29    0       4.042610      4.038140      4.044720    -0.010838    0.008897   -0.014946
            30    0       4.039560      6.072740      6.053250     0.005319   -0.046620    0.025803
            31    0       6.062660      4.038000      6.061560    -0.003853   -0.000049   -0.006464
            32    0       6.063900      6.057240      4.029390     0.001314    0.011266    0.024807
 Energy
       -119.290631400000
 PlusStress:  xx          yy          zz          yz          xz          xy
         2.77004     2.74833     2.73231    -0.00608     0.00699    -0.00188
 Feature   EFS_by	VASP
END_CFG

BEGIN_CFG
 Size
    32
 Supercell
         8.080400      0.000000      0.000000
         0.000000      8.080400      0.000000
         0.000000      0.000000      8.080400
 AtomData:  id type       cartes_x      cartes_y      cartes_z           fx          fy          fz
             1    0       8.080270      8.073240      8.067860    -0.023024    0.033843    0.033886
             2    0       8.076420      2.023010      2.023150     0.005745   -0.020022    0.004954
             3    0       2.019690      0.009420      2.038270     0.008235   -0.021305   -0.059717
             4    0       2.018370      2.016970      0.006740     0.006698    0.004918   -0.010933
             5    0       4.036050      0.003420      8.079710     0.008708   -0.003461    0.006964
             6    0       4.045320      2.022200      2.023380    -0.030004    0.012193    0.004871
             7    0       6.061300      0.018110      2.022240     0.021078   -0.057652    0.000949
             8    0       6.049510      2.015470      0.013220     0.051037    0.007883   -0.060351
             9    0       8.071710      4.042310      8.062760     0.016637   -0.029186    0.050280
            10    0       8.072670      6.063540      2.020890     0.019928   -0.019449    0.006140
            11    0       2.018260      4.052010      2.002710     0.000437   -0.044381    0.055019
            12    0       2.009840      6.062260      8.073970     0.026832    0.005491    0.006886
            13    0       0.012680      8.078600      4.056820    -0.044902    0.026939   -0.043435
            14    0       0.009000      2.020120      6.059260    -0.035948    0.005472    0.017900
            15    0       2.016790      0.001040      6.068820     0.026561    0.014041   -0.030861
            16    0       2.025030      2.026400      4.035140    -0.019073    0.004136    0.009926
            17    0       8.070920      4.029950      4.047330     0.024689    0.026021   -0.030618
            18    0       8.068140      6.055310      6.059950     0.017585    0.011106   -0.016278
            19    0       2.019160      4.041260      6.068050     0.003516    0.004724   -0.025686
            20    0       2.024740      6.066510      4.024450    -0.000170   -0.035137    0.045003
            21    0       4.030310      4.021950      8.068330     0.017957    0.067273    0.018823
            22    0       4.043080      6.046670      2.021810    -0.010561    0.041204   -0.016825
            23    0       6.062880      4.032300      2.017240     0.011884    0.001530    0.012609
            24    0       6.085950      6.043880      0.012870    -0.088881    0.047919   -0.044665
            25    0       4.045680      0.002900      4.040150    -0.026878    0.001373   -0.001717
            26    0       4.033150      2.036770      6.061380     0.000784   -0.071066    0.003578
            27    0       6.057520      0.006710      6.055380     0.026199   -0.023543    0.046086
            28    0       6.070160      2.004590      4.052020    -0.001490    0.048235   -0.028014
            29    0       4.043810      4.037120      4.046980    -0.016163    0.013315   -0.022613
            30    0       4.039240      6.078940      6.049740     0.008477   -0.069955    0.039073
            31    0       6.063840      4.036900      6.062190    -0.007733    0.000552   -0.008877
            32    0       6.065710      6.055720      4.024000     0.001800    0.016966    0.037672
 Energy
       -119.284179120000
 PlusStress:  xx          yy          zz          yz          xz          xy
         2.80408     2.75187     2.72664    -0.01222     0.01529    -0.00499
 Feature   EFS_by	VASP
END_CFG

BEGIN_CFG
 Size
    32
 Supercell
         8.080400      0.000000      0.000000
         0.000000      8.080400      0.000000
         0.000000      0.000000      8.080400
 AtomData:  id type       cartes_x      cartes_y      cartes_z           fx          fy          fz
             1    0       8.080220      8.070880      8.063700    -0.030743    0.047158    0.046995
             2    0       8.075100      2.023970      2.024160     0.010643   -0.024775    0.005566
             3    0       2.019560      0.012550      2.044290     0.009996   -0.028069   -0.082183
             4    0       2.017800      2.015920      0.008980     0.005186    0.006419   -0.013639
             5    0       4.034670      0.004570      8.079480     0.013097   -0.008131    0.010855
             6    0       4.047010      2.022900      2.024470    -0.041729    0.017641    0.007275
             7    0       6.061650      0.024110      2.022950     0.026889   -0.081581    0.000039
             8    0       6.045940      2.013940      0.017590     0.068964    0.011066   -0.082390
             9    0       8.068820      4.042990      8.056900     0.026479   -0.043402    0.069083
            10    0       8.070110      6.064610      2.021160     0.030044   -0.025041    0.010007
            11    0       2.017640      4.055920      1.996940    -0.002270   -0.060760    0.073064
            12    0       2.006440      6.062910      8.071830     0.036950    0.007119    0.009701
            13    0       0.016880      8.078020      4.062340    -0.059459    0.034899   -0.058080
            14    0       0.011980      2.020140      6.058920    -0.046653    0.007096    0.024293
            15    0       2.015700      0.001400      6.071650     0.034947    0.018404   -0.041255
            16    0       2.026660      2.028500      4.033460    -0.025589    0.007195    0.014723
            17    0       8.067780      4.026550      4.049700     0.034942    0.035752   -0.041847
            18    0       8.064060      6.053650      6.059820     0.024976    0.014380   -0.025090
            19    0       2.018840      4.041620      6.070620     0.002905    0.008053   -0.036363
            20    0       2.026290      6.068560      4.019230    -0.002988   -0.048319    0.061512
            21    0       4.027020      4.015900      8.064310     0.027089    0.092685    0.027658
            22    0       4.044030      6.042150      2.022370    -0.010151    0.055628   -0.026210
            23    0       6.063750      4.029670      2.016290     0.014390    0.003537    0.016632
            24    0       6.094460      6.038430      0.017140    -0.126309    0.065909   -0.059681
            25    0       4.047490      0.003870      4.040130    -0.035414    0.001949   -0.003337
            26    0       4.030800      2.042290      6.061740     0.001537   -0.095792    0.003631
            27    0       6.056610      0.008930      6.053770     0.034215   -0.032263    0.063377
            28    0       6.073450      1.999440      4.055950    -0.002005    0.065765   -0.037667
            29    0       4.045010      4.036100      4.049220    -0.021138    0.017697   -0.030723
            30    0       4.038930      6.085110      6.046240     0.012516   -0.094324    0.053199
            31    0       6.065010      4.035790      6.062810    -0.013453    0.001624   -0.010558
            32    0       6.067510      6.054200      4.018620     0.002056    0.022478    0.051448
 Energy
       -119.274948260000
 PlusStress:  xx          yy          zz          yz          xz          xy
         2.84727     2.75344     2.72499    -0.01952     0.02577    -0.00945
 Feature   EFS_by	VASP
END_CFG

BEGIN_CFG
 Size
    32
 Supercell
         8.080400      0.000000      0.000000
         0.000000      8.080400      0.000000
         0.000000      0.000000      8.080400
 AtomData:  id type       cartes_x      cartes_y      cartes_z           fx          fy          fz
             1    0       8.080150      8.068530      8.059560    -0.038113    0.061702    0.060779
             2    0       8.073780      2.024920      2.025180     0.017038   -0.028771    0.005394
             3    0       2.019430      0.015670      2.050290     0.011164   -0.034514   -0.105244
             4    0       2.017230      2.014880      0.011220     0.001222    0.007457   -0.015481
             5    0       4.033300      0.005700      8.079260     0.018110   -0.014935    0.015279
             6    0       4.048680      2.023610      2.025570    -0.053888    0.023097    0.010230
             7    0       6.062010      0.030090      2.023660     0.031786   -0.107078   -0.001330
             8    0       6.042390      2.012400      0.021940     0.087188    0.014148   -0.104519
             9    0       8.065940      4.043660      8.051070     0.038462   -0.059961    0.088756
            10    0       8.067550      6.065670      2.021430     0.042016   -0.029831    0.015121
            11    0       2.017030      4.059810      1.991200    -0.005990   -0.077496    0.091216
            12    0       2.003040      6.063570      8.069690     0.048178    0.008937    0.013045
            13    0       0.021060      8.077440      4.067840    -0.073383    0.041862   -0.072762
            14    0       0.014940      2.020150      6.058590    -0.056415    0.008355    0.030831
            15    0       2.014620      0.001760      6.074460     0.043025    0.022284   -0.051558
            16    0       2.028290      2.030610      4.031780    -0.032129    0.010887    0.019822
            17    0       8.064640      4.023160      4.052040     0.046192    0.046030   -0.053354
            18    0       8.059990      6.051990      6.059690     0.033189    0.017657   -0.035558
            19    0       2.018530      4.041980      6.073170     0.001556    0.012048   -0.048613
            20    0       2.027830      6.070600      4.014020    -0.007078   -0.061908    0.078116
            21    0       4.023740      4.009880      8.060310     0.037518    0.119756    0.037943
            22    0       4.044980      6.037650      2.022920    -0.008335    0.070050   -0.037233
            23    0       6.064630      4.027040      2.015350     0.015948    0.006260    0.020955
            24    0       6.102920      6.033010      0.021380    -0.167267    0.085089   -0.074430
            25    0       4.049290      0.004830      4.040110    -0.043447    0.002741   -0.005297
            26    0       4.028450      2.047780      6.062110     0.003108   -0.120795    0.002458
            27    0       6.055710      0.011150      6.052180     0.041282   -0.041229    0.080911
            28    0       6.076740      1.994320      4.059860    -0.003078    0.083675   -0.047531
            29    0       4.046200      4.035080      4.051460    -0.025901    0.022127   -0.038776
            30    0       4.038620      6.091260      6.042760     0.016837   -0.118403    0.067609
            31    0       6.066180      4.034690      6.063430    -0.020843    0.002882   -0.012293
            32    0       6.069310      6.052690      4.013250     0.001948    0.027874    0.065590
 Energy
       -119.262803970000
 PlusStress:  xx          yy          zz          yz          xz          xy
         2.89772     2.75553     2.73051    -0.02777     0.03787    -0.01540
 Feature   EFS_by	VASP
END_CFG

BEGIN_CFG
 Size
    32
 Supercell
         8.080400      0.000000      0.000000
         0.000000      8.080400      0.000000
         0.000000      0.000000      8.080400
 AtomData:  id type       cartes_x      cartes_y      cartes_z           fx          fy          fz
             1    0       8.080070      8.066200      8.055430    -0.045513    0.077575    0.075909
             2    0       8.072470      2.025860      2.026210     0.024651   -0.032033    0.004455
             3    0       2.019300      0.018780      2.056250     0.011842   -0.040950   -0.129975
             4    0       2.016660      2.013850      0.013450    -0.004727    0.007966   -0.016787
             5    0       4.031930      0.006840      8.079040     0.023720   -0.023689    0.020749
             6    0       4.050340      2.024330      2.026680    -0.066792    0.029349    0.013938
             7    0       6.062380      0.036030      2.024380     0.036405   -0.134722   -0.002811
             8    0       6.038870      2.010870      0.026250     0.106280    0.017396   -0.128231
             9    0       8.063070      4.044310      8.045270     0.052681   -0.079365    0.109771
            10    0       8.065010      6.066720      2.021710     0.056213   -0.033837    0.020955
            11    0       2.016410      4.063670      1.985480    -0.011097   -0.094761    0.109696
            12    0       1.999670      6.064230      8.067560     0.060175    0.010781    0.017027
            13    0       0.025220      8.076880      4.073310    -0.087265    0.048201   -0.087728
            14    0       0.017880      2.020170      6.058280    -0.065782    0.009268    0.037987
            15    0       2.013560      0.002130      6.077250     0.051173    0.026373   -0.062666
            16    0       2.029900      2.032720      4.030110    -0.038519    0.015260    0.025949
            17    0       8.061530      4.019780      4.054370     0.058736    0.056974   -0.065551
            18    0       8.055930      6.050350      6.059540     0.042619    0.020931   -0.048093
            19    0       2.018220      4.042340      6.075720    -0.000867    0.017597   -0.062784
            20    0       2.029380      6.072610      4.008840    -0.012282   -0.076801    0.096291
            21    0       4.020470      4.003910      8.056310     0.049595    0.148919    0.049759
            22    0       4.045920      6.033170      2.023450    -0.005075    0.085103   -0.050287
            23    0       6.065510      4.024410      2.014420     0.016505    0.008948    0.026049
            24    0       6.111320      6.027610      0.025600    -0.212608    0.105747   -0.089722
            25    0       4.051080      0.005800      4.040090    -0.051391    0.003873   -0.007697
            26    0       4.026090      2.053230      6.062470     0.005167   -0.147151    0.000351
            27    0       6.054820      0.013350      6.050610     0.047824   -0.050372    0.099394
            28    0       6.080030      1.989230      4.063760    -0.004533    0.102617   -0.057601
            29    0       4.047380      4.034080      4.053680    -0.030190    0.026604   -0.047375
            30    0       4.038320      6.097360      6.039300     0.021758   -0.143337    0.082404
            31    0       6.067340      4.033590      6.064050    -0.030121    0.004332   -0.013982
            32    0       6.071120      6.051190      4.007910     0.001286    0.033167    0.080709
 Energy
       -119.247629530000
 PlusStress:  xx          yy          zz          yz          xz          xy
         2.95414     2.76118     2.74392    -0.03656     0.05112    -0.02263
 Feature   EFS_by	VASP
END_CFG

BEGIN_CFG
 Size
    32
 Supercell
         8.080400      0.000000      0.000000
         0.000000      8.080400      0.000000
         0.000000      0.000000      8.080400
 AtomData:  id type       cartes_x      cartes_y      cartes_z           fx          fy          fz
             1    0       8.079970      8.063890      8.051330    -0.052636    0.094436    0.091441
             2    0       8.071160      2.026790      2.027230     0.033250   -0.034709    0.002589
             3    0       2.019180      0.021880      2.062170     0.012006   -0.047047   -0.155171
             4    0       2.016090      2.012810      0.015680    -0.012713    0.007924   -0.017407
             5    0       4.030570      0.007960      8.078830     0.029547   -0.033979    0.026412
             6    0       4.051970      2.025060      2.027780    -0.079724    0.035488    0.018222
             7    0       6.062760      0.041930      2.025090     0.040417   -0.163093   -0.004480
             8    0       6.035390      2.009350      0.030520     0.125620    0.020530   -0.151999
             9    0       8.060220      4.044940      8.039500     0.068590   -0.100790    0.131301
            10    0       8.062490      6.067750      2.022000     0.072103   -0.037091    0.027628
            11    0       2.015790      4.067510      1.979810    -0.016781   -0.111981    0.128258
            12    0       1.996310      6.064900      8.065430     0.073056    0.012804    0.021530
            13    0       0.029350      8.076340      4.078760    -0.100600    0.053527   -0.102554
            14    0       0.020810      2.020190      6.057970    -0.074353    0.009920    0.045498
            15    0       2.012520      0.002510      6.080020     0.059218    0.030135   -0.073696
            16    0       2.031500      2.034840      4.028440    -0.044845    0.020169    0.032388
            17    0       8.058420      4.016420      4.056680     0.071999    0.068402   -0.077731
            18    0       8.051880      6.048700      6.059370     0.052658    0.024283   -0.061846
            19    0       2.017910      4.042720      6.078240    -0.003908    0.023660   -0.078517
            20    0       2.030920      6.074600      4.003690    -0.018257   -0.092162    0.114629
            21    0       4.017210      3.997980      8.052330     0.062534    0.179465    0.062877
            22    0       4.046870      6.028720      2.023980    -0.001139    0.099794   -0.064557
            23    0       6.066390      4.021780      2.013500     0.016249    0.011887    0.031708
            24    0       6.119660      6.022240      0.029800    -0.260295    0.127388   -0.104861
            25    0       4.052850      0.006780      4.040070    -0.058736    0.005444   -0.010083
            26    0       4.023740      2.058630      6.062840     0.008182   -0.173935   -0.003061
            27    0       6.053950      0.015530      6.049080     0.053382   -0.059514    0.117873
            28    0       6.083320      1.984160      4.067640    -0.006841    0.121963   -0.067801
            29    0       4.048550      4.033080      4.055890    -0.034131    0.031193   -0.055762
            30    0       4.038020      6.103420      6.035870     0.026673   -0.167937    0.097164
            31    0       6.068500      4.032490      6.064660    -0.040762    0.005628   -0.016110
            32    0       6.072930      6.049700      4.002590     0.000116    0.038202    0.096264
 Energy
       -119.229342410000
 PlusStress:  xx          yy          zz          yz          xz          xy
         3.01731     2.77452     2.76522    -0.04570     0.06539    -0.03067
 Feature   EFS_by	VASP
END_CFG

BEGIN_CFG
 Size
    32
 Supercell
         8.080400      0.000000      0.000000
         0.000000      8.080400      0.000000
         0.000000      0.000000      8.080400
 AtomData:  id type       cartes_x      cartes_y      cartes_z           fx          fy          fz
             1    0       8.079860      8.061620      8.047260    -0.059907    0.112165    0.108058
             2    0       8.069860      2.027710      2.028260     0.042661   -0.036911    0.000010