BEGIN_CFG
 Size
    8
 Supercell
         5.468900      0.000000      0.000000
         0.000000      5.468900      0.000000
         0.000000      0.000000      5.468900
 AtomData:  id type       cartes_x      cartes_y      cartes_z           fx          fy          fz
             1    0       0.000000      0.000000      0.000000    -0.000018    0.000047    0.000007
             2    0       1.367220      1.367220      1.367220    -0.000027    0.000029    0.000001
             3    0       0.000000      2.734450      2.734450     0.000007   -0.000048   -0.000022
             4    0       1.367220      4.101680      4.101680     0.000034   -0.000015   -0.000003
             5    0       2.734450      0.000000      2.734450    -0.000002   -0.000021   -0.000002
             6    0       4.101680      1.367220      4.101680     0.000026    0.000004   -0.000005
             7    0       2.734450      2.734450      0.000000    -0.000018    0.000023   -0.000038
             8    0       4.101680      4.101680      1.367220    -0.000016   -0.000001   -0.000014
 Energy
        -43.398076970000
 PlusStress:  xx          yy          zz          yz          xz          xy
        -0.01244    -0.01243    -0.01244     0.00018     0.00004    -0.00003
 Feature   EFS_by	VASP
END_CFG
