BEGIN_CFG
 Size
    32
 Supercell
         8.095800      0.000000      0.000000
         0.000000      8.095800      0.000000
         0.000000      0.000000      8.095800
 AtomData:  id type       cartes_x      cartes_y      cartes_z           fx          fy          fz
             1    0       0.000000      0.000000      0.000000     0.000000    0.000000    0.000000
             2    0       0.000000      2.023950      0.000000     0.000000    0.000000    0.000000
             3    0       2.023950      0.000000      2.023950     0.000000    0.000000    0.000000
             4    0       2.023950      2.023950      2.023950     0.000000    0.000000    0.000000
             5    0       0.000000      0.000000      0.000000     0.000000    0.000000    0.000000
             6    0       0.000000      2.023950      0.000000     0.000000    0.000000    0.000000
             7    0       2.023950      0.000000      2.023950     0.000000    0.000000    0.000000
             8    0       2.023950      2.023950      2.023950     0.000000    0.000000    0.000000
             9    0       0.000000      4.047900      0.000000     0.000000    0.000000    0.000000
            10    0       0.000000      6.071850      0.000000     0.000000    0.000000    0.000000
            11    0       2.023950      4.047900      2.023950     0.000000    0.000000    0.000000
            12    0       2.023950      6.071850      2.023950     0.000000    0.000000    0.000000
            13    0       0.000000      4.047900      0.000000     0.000000    0.000000    0.000000
            14    0       0.000000      6.071850      0.000000     0.000000    0.000000    0.000000
            15    0       2.023950      4.047900      2.023950     0.000000    0.000000    0.000000
            16    0       2.023950      6.071850      2.023950     0.000000    0.000000    0.000000
            17    0       4.047900      0.000000      4.047900     0.000000    0.000000    0.000000
            18    0       4.047900      2.023950      4.047900     0.000000    0.000000    0.000000
            19    0       6.071850      0.000000      6.071850     0.000000    0.000000    0.000000
            20    0       6.071850      2.023950      6.071850     0.000000    0.000000    0.000000
            21    0       4.047900      0.000000      4.047900     0.000000    0.000000    0.000000
            22    0       4.047900      2.023950      4.047900     0.000000    0.000000    0.000000
            23    0       6.071850      0.000000      6.071850     0.000000    0.000000    0.000000
            24    0       6.071850      2.023950      6.071850     0.000000    0.000000    0.000000
            25    0       4.047900      4.047900      4.047900     0.000000    0.000000    0.000000
            26    0       4.047900      6.071850      4.047900     0.000000    0.000000    0.000000
            27    0       6.071850      4.047900      6.071850     0.000000    0.000000    0.000000
            28    0       6.071850      6.071850      6.071850     0.000000    0.000000    0.000000
            29    0       4.047900      4.047900      4.047900     0.000000    0.000000    0.000000
            30    0       4.047900      6.071850      4.047900     0.000000    0.000000    0.000000
            31    0       6.071850      4.047900      6.071850     0.000000    0.000000    0.000000
            32    0       6.071850      6.071850      6.071850     0.000000    0.000000    0.000000
 Energy
        0
 PlusStress:  xx          yy
s
 Feature
END_CFG
