BEGIN_CFG
 Size
    32
 Supercell
         8.080400      0.000000      0.000000
         0.000000      8.080400      0.000000
         0.000000      0.000000      8.080400
 AtomData:  id type       cartes_x      cartes_y      cartes_z           fx          fy          fz
             1    0       8.080220      8.070880      8.063700    -0.030743    0.047158    0.046995
             2    0       8.075100      2.023970      2.024160     0.010643   -0.024775    0.005566
             3    0       2.019560      0.012550      2.044290     0.009996   -0.028069   -0.082183
             4    0       2.017800      2.015920      0.008980     0.005186    0.006419   -0.013639
             5    0       4.034670      0.004570      8.079480     0.013097   -0.008131    0.010855
             6    0       4.047010      2.022900      2.024470    -0.041729    0.017641    0.007275
             7    0       6.061650      0.024110      2.022950     0.026889   -0.081581    0.000039
             8    0       6.045940      2.013940      0.017590     0.068964    0.011066   -0.082390
             9    0       8.068820      4.042990      8.056900     0.026479   -0.043402    0.069083
            10    0       8.070110      6.064610      2.021160     0.030044   -0.025041    0.010007
            11    0       2.017640      4.055920      1.996940    -0.002270   -0.060760    0.073064
            12    0       2.006440      6.062910      8.071830     0.036950    0.007119    0.009701
            13    0       0.016880      8.078020      4.062340    -0.059459    0.034899   -0.058080
            14    0       0.011980      2.020140      6.058920    -0.046653    0.007096    0.024293
            15    0       2.015700      0.001400      6.071650     0.034947    0.018404   -0.041255
            16    0       2.026660      2.028500      4.033460    -0.025589    0.007195    0.014723
            17    0       8.067780      4.026550      4.049700     0.034942    0.035752   -0.041847
            18    0       8.064060      6.053650      6.059820     0.024976    0.014380   -0.025090
            19    0       2.018840      4.041620      6.070620     0.002905    0.008053   -0.036363
            20    0       2.026290      6.068560      4.019230    -0.002988   -0.048319    0.061512
            21    0       4.027020      4.015900      8.064310     0.027089    0.092685    0.027658
            22    0       4.044030      6.042150      2.022370    -0.010151    0.055628   -0.026210
            23    0       6.063750      4.029670      2.016290     0.014390    0.003537    0.016632
            24    0       6.094460      6.038430      0.017140    -0.126309    0.065909   -0.059681
            25    0       4.047490      0.003870      4.040130    -0.035414    0.001949   -0.003337
            26    0       4.030800      2.042290      6.061740     0.001537   -0.095792    0.003631
            27    0       6.056610      0.008930      6.053770     0.034215   -0.032263    0.063377
            28    0       6.073450      1.999440      4.055950    -0.002005    0.065765   -0.037667
            29    0       4.045010      4.036100      4.049220    -0.021138    0.017697   -0.030723
            30    0       4.038930      6.085110      6.046240     0.012516   -0.094324    0.053199
            31    0       6.065010      4.035790      6.062810    -0.013453    0.001624   -0.010558
            32    0       6.067510      6.054200      4.018620     0.002056    0.022478    0.051448
 Energy
       -119.274948260000
 PlusStress:  xx          yy          zz          yz          xz          xy
         2.84727     2.75344     2.72499    -0.01952     0.02577    -0.00945
 Feature   EFS_by	VASP
END_CFG

BEGIN_CFG
 Size
    32
 Supercell
         8.080400      0.000000      0.000000
         0.000000      8.080400      0.000000
         0.000000      0.000000      8.080400
 AtomData:  id type       cartes_x      cartes_y      cartes_z           fx          fy          fz
             1    0       8.080150      8.068530      8.059560    -0.038113    0.061702    0.060779
             2    0       8.073780      2.024920      2.025180     0.017038   -0.028771    0.005394
             3    0       2.019430      0.015670      2.050290     0.011164   -0.034514   -0.105244
             4    0       2.017230      2.014880      0.011220     0.001222    0.007457   -0.015481
             5    0       4.033300      0.005700      8.079260     0.018110   -0.014935    0.015279
             6    0       4.048680      2.023610      2.025570    -0.053888    0.023097    0.010230
             7    0       6.062010      0.030090      2.023660     0.031786   -0.107078   -0.001330
             8    0       6.042390      2.012400      0.021940     0.087188    0.014148   -0.104519
             9    0       8.065940      4.043660      8.051070     0.038462   -0.059961    0.088756
            10    0       8.067550      6.065670      2.021430     0.042016   -0.029831    0.015121
            11    0       2.017030      4.059810      1.991200    -0.005990   -0.077496    0.091216
            12    0       2.003040      6.063570      8.069690     0.048178    0.008937    0.013045
            13    0       0.021060      8.077440      4.067840    -0.073383    0.041862   -0.072762
            14    0       0.014940      2.020150      6.058590    -0.056415    0.008355    0.030831
            15    0       2.014620      0.001760      6.074460     0.043025    0.022284   -0.051558
            16    0       2.028290      2.030610      4.031780    -0.032129    0.010887    0.019822
            17    0       8.064640      4.023160      4.052040     0.046192    0.046030   -0.053354
            18    0       8.059990      6.051990      6.059690     0.033189    0.017657   -0.035558
            19    0       2.018530      4.041980      6.073170     0.001556    0.012048   -0.048613
            20    0       2.027830      6.070600      4.014020    -0.007078   -0.061908    0.078116
            21    0       4.023740      4.009880      8.060310     0.037518    0.119756    0.037943
            22    0       4.044980      6.037650      2.022920    -0.008335    0.070050   -0.037233
            23    0       6.064630      4.027040      2.015350     0.015948    0.006260    0.020955
            24    0       6.102920      6.033010      0.021380    -0.167267    0.085089   -0.074430
            25    0       4.049290      0.004830      4.040110    -0.043447    0.002741   -0.005297
            26    0       4.028450      2.047780      6.062110     0.003108   -0.120795    0.002458
            27    0       6.055710      0.011150      6.052180     0.041282   -0.041229    0.080911
            28    0       6.076740      1.994320      4.059860    -0.003078    0.083675   -0.047531
            29    0       4.046200      4.035080      4.051460    -0.025901    0.022127   -0.038776
            30    0       4.038620      6.091260      6.042760     0.016837   -0.118403    0.067609
            31    0       6.066180      4.034690      6.063430    -0.020843    0.002882   -0.012293
            32    0       6.069310      6.052690      4.013250     0.001948    0.027874    0.065590
 Energy
       -119.262803970000
 PlusStress:  xx          yy          zz          yz          xz          xy
         2.89772     2.75553     2.73051    -0.02777     0.03787    -0.01540
 Feature   EFS_by	VASP
END_CFG

BEGIN_CFG
 Size
    32
 Supercell
         8.080400      0.000000      0.000000
         0.000000      8.080400      0.000000
         0.000000      0.000000      8.080400
 AtomData:  id type       cartes_x      cartes_y      cartes_z           fx          fy          fz
             1    0       8.080070      8.066200      8.055430    -0.045513    0.077575    0.075909
             2    0       8.072470      2.025860      2.026210     0.024651   -0.032033    0.004455
             3    0       2.019300      0.018780      2.056250     0.011842   -0.040950   -0.129975
             4    0       2.016660      2.013850      0.013450    -0.004727    0.007966   -0.016787
             5    0       4.031930      0.006840      8.079040     0.023720   -0.023689    0.020749
             6    0       4.050340      2.024330      2.026680    -0.066792    0.029349    0.013938
             7    0       6.062380      0.036030      2.024380     0.036405   -0.134722   -0.002811
             8    0       6.038870      2.010870      0.026250     0.106280    0.017396   -0.128231
             9    0       8.063070      4.044310      8.045270     0.052681   -0.079365    0.109771
            10    0       8.065010      6.066720      2.021710     0.056213   -0.033837    0.020955
            11    0       2.016410      4.063670      1.985480    -0.011097   -0.094761    0.109696
            12    0       1.999670      6.064230      8.067560     0.060175    0.010781    0.017027
            13    0       0.025220      8.076880      4.073310    -0.087265    0.048201   -0.087728
            14    0       0.017880      2.020170      6.058280    -0.065782    0.009268    0.037987
            15    0       2.013560      0.002130      6.077250     0.051173    0.026373   -0.062666
            16    0       2.029900      2.032720      4.030110    -0.038519    0.015260    0.025949
            17    0       8.061530      4.019780      4.054370     0.058736    0.056974   -0.065551
            18    0       8.055930      6.050350      6.059540     0.042619    0.020931   -0.048093
            19    0       2.018220      4.042340      6.075720    -0.000867    0.017597   -0.062784
            20    0       2.029380      6.072610      4.008840    -0.012282   -0.076801    0.096291
            21    0       4.020470      4.003910      8.056310     0.049595    0.148919    0.049759
            22    0       4.045920      6.033170      2.023450    -0.005075    0.085103   -0.050287
            23    0       6.065510      4.024410      2.014420     0.016505    0.008948    0.026049
            24    0       6.111320      6.027610      0.025600    -0.212608    0.105747   -0.089722
            25    0       4.051080      0.005800      4.040090    -0.051391    0.003873   -0.007697
            26    0       4.026090      2.053230      6.062470     0.005167   -0.147151    0.000351
            27    0       6.054820      0.013350      6.050610     0.047824   -0.050372    0.099394
            28    0       6.080030      1.989230      4.063760    -0.004533    0.102617   -0.057601
            29    0       4.047380      4.034080      4.053680    -0.030190    0.026604   -0.047375
            30    0       4.038320      6.097360      6.039300     0.021758   -0.143337    0.082404
            31    0       6.067340      4.033590      6.064050    -0.030121    0.004332   -0.013982
            32    0       6.071120      6.051190      4.007910     0.001286    0.033167    0.080709
 Energy
       -119.247629530000
 PlusStress:  xx          yy          zz          yz          xz          xy
         2.95414     2.76118     2.74392    -0.03656     0.05112    -0.02263
 Feature   EFS_by	VASP
END_CFG

BEGIN_CFG
 Size
    32
 Supercell
         8.080400      0.000000      0.000000
         0.000000      8.080400      0.000000
         0.000000      0.000000      8.080400
 AtomData:  id type       cartes_x      cartes_y      cartes_z           fx          fy          fz
             1    0       8.079970      8.063890      8.051330    -0.052636    0.094436    0.091441
             2    0       8.071160      2.026790      2.027230     0.033250   -0.034709    0.002589
             3    0       2.019180      0.021880      2.062170     0.012006   -0.047047   -0.155171
             4    0       2.016090      2.012810      0.015680    -0.012713    0.007924   -0.017407
             5    0       4.030570      0.007960      8.078830     0.029547   -0.033979    0.026412
             6    0       4.051970      2.025060      2.027780    -0.079724    0.035488    0.018222
             7    0       6.062760      0.041930      2.025090     0.040417   -0.163093   -0.004480
             8    0       6.035390      2.009350      0.030520     0.125620    0.020530   -0.151999
             9    0       8.060220      4.044940      8.039500     0.068590   -0.100790    0.131301
            10    0       8.062490      6.067750      2.022000     0.072103   -0.037091    0.027628
            11    0       2.015790      4.067510      1.979810    -0.016781   -0.111981    0.128258
            12    0       1.996310      6.064900      8.065430     0.073056    0.012804    0.021530
            13    0       0.029350      8.076340      4.078760    -0.100600    0.053527   -0.102554
            14    0       0.020810      2.020190      6.057970    -0.074353    0.009920    0.045498
            15    0       2.012520      0.002510      6.080020     0.059218    0.030135   -0.073696
            16    0       2.031500      2.034840      4.028440    -0.044845    0.020169    0.032388
            17    0       8.058420      4.016420      4.056680     0.071999    0.068402   -0.077731
            18    0       8.051880      6.048700      6.059370     0.052658    0.024283   -0.061846
            19    0       2.017910      4.042720      6.078240    -0.003908    0.023660   -0.078517
            20    0       2.030920      6.074600      4.003690    -0.018257   -0.092162    0.114629
            21    0       4.017210      3.997980      8.052330     0.062534    0.179465    0.062877
            22    0       4.046870      6.028720      2.023980    -0.001139    0.099794   -0.064557
            23    0       6.066390      4.021780      2.013500     0.016249    0.011887    0.031708
            24    0       6.119660      6.022240      0.029800    -0.260295    0.127388   -0.104861
            25    0       4.052850      0.006780      4.040070    -0.058736    0.005444   -0.010083
            26    0       4.023740      2.058630      6.062840     0.008182   -0.173935   -0.003061
            27    0       6.053950      0.015530      6.049080     0.053382   -0.059514    0.117873
            28    0       6.083320      1.984160      4.067640    -0.006841    0.121963   -0.067801
            29    0       4.048550      4.033080      4.055890    -0.034131    0.031193   -0.055762
            30    0       4.038020      6.103420      6.035870     0.026673   -0.167937    0.097164
            31    0       6.068500      4.032490      6.064660    -0.040762    0.005628   -0.016110
            32    0       6.072930      6.049700      4.002590     0.000116    0.038202    0.096264
 Energy
       -119.229342410000
 PlusStress:  xx          yy          zz          yz          xz          xy
         3.01731     2.77452     2.76522    -0.04570     0.06539    -0.03067
 Feature   EFS_by	VASP
END_CFG
BEGIN_CFG
 Size
    32
 Supercell
         8.080400      0.000000      0.000000
         0.000000      8.080400      0.000000
         0.000000      0.000000      8.080400
 AtomData:  id type       cartes_x      cartes_y      cartes_z           fx          fy          fz
             1    0       8.079860      8.061620      8.047260    -0.059907    0.112165    0.108058
             2    0       8.069860      2.027710      2.028260     0.042661   -0.036911    0.000010
             3    0       2.019060      0.024960      2.068050     0.011808   -0.053061   -0.181704
             4    0       2.015510      2.011770      0.017910    -0.022073    0.007235   -0.017633
             5    0       4.029220      0.009080      8.078630     0.035559   -0.045440    0.032794
             6    0       4.053580      2.025810      2.028900    -0.093084    0.042170    0.023245
             7    0       6.063150      0.047780      2.025800     0.044390   -0.192816   -0.006041
             8    0       6.031950      2.007820      0.034740     0.145565    0.023730   -0.177221
             9    0       8.057390      4.045520      8.033770     0.086287   -0.124538    0.153863
            10    0       8.059990      6.068780      2.022290     0.089982   -0.039509    0.034671
            11    0       2.015160      4.071310      1.974160    -0.023382   -0.129334    0.147075
            12    0       1.992970      6.065570      8.063300     0.086441    0.014814    0.026612
            13    0       0.033450      8.075820      4.084180    -0.113936    0.058207   -0.117565
            14    0       0.023710      2.020210      6.057680    -0.082566    0.010221    0.053672
            15    0       2.011490      0.002900      6.082770     0.067516    0.034275   -0.085510
            16    0       2.033090      2.036970      4.026790    -0.050962    0.025507    0.039739
            17    0       8.055350      4.013090      4.058960     0.086258    0.080311   -0.090429
            18    0       8.047840      6.047070      6.059180     0.063596    0.027829   -0.077137
            19    0       2.017600      4.043100      6.080730    -0.007828    0.030989   -0.095942
            20    0       2.032460      6.076550      3.998580    -0.024769   -0.108655    0.134336
            21    0       4.013980      3.992100      8.048370     0.076616    0.211588    0.077449
            22    0       4.047810      6.024300      2.024470     0.003528    0.114809   -0.080215
            23    0       6.067290      4.019150      2.012580     0.015147    0.014499    0.038313
            24    0       6.127920      6.016920      0.033960    -0.310934    0.150323   -0.120520
            25    0       4.054600      0.007750      4.040040    -0.065956    0.007466   -0.012692
            26    0       4.021390      2.063970      6.063200     0.011724   -0.202235   -0.007411
            27    0       6.053100      0.017690      6.047600     0.058415   -0.068674    0.137049
            28    0       6.086610      1.979140      4.071500    -0.009773    0.142208   -0.078195
            29    0       4.049710      4.032090      4.058080    -0.037536    0.035967   -0.064645
            30    0       4.037730      6.109420      6.032470     0.031846   -0.193147    0.111881
            31    0       6.069640      4.031390      6.065270    -0.052967    0.006878   -0.018485
            32    0       6.074740      6.048230      3.997300    -0.001761    0.043125    0.112725
 Energy
       -119.207895390000
 PlusStress:  xx          yy          zz          yz          xz          xy
         3.08832     2.79840     2.79317    -0.05502     0.08069    -0.03951
 Feature   EFS_by	VASP
END_CFG

BEGIN_CFG
 Size
    32
 Supercell
         8.080400      0.000000      0.000000
         0.000000      8.080400      0.000000
         0.000000      0.000000      8.080400
 AtomData:  id type       cartes_x      cartes_y      cartes_z           fx          fy          fz
             1    0       8.079720      8.059380      8.043210    -0.067070    0.130319    0.124814
             2    0       8.068580      2.028620      2.029290     0.052643   -0.038779   -0.003337
             3    0       2.018950      0.028030      2.073870     0.011254   -0.058723   -0.208434
             4    0       2.014920      2.010740      0.020130    -0.032742    0.006005   -0.017370
             5    0       4.027880      0.010180      8.078440     0.041407   -0.057576    0.039048
             6    0       4.055160      2.026570      2.030030    -0.106237    0.048602    0.028763
             7    0       6.063570      0.053570      2.026510     0.048032   -0.222640   -0.007593
             8    0       6.028550      2.006310      0.038900     0.165545    0.026826   -0.202432
             9    0       8.054580      4.046070      8.028090     0.105221   -0.149727    0.176648
            10    0       8.057510      6.069800      2.022600     0.109253   -0.041241    0.042210
            11    0       2.014530      4.075070      1.968560    -0.030213   -0.146392    0.165884
            12    0       1.989650      6.066250      8.061180     0.100303    0.016952    0.032117
            13    0       0.037520      8.075320      4.089570    -0.126838    0.061955   -0.132429
            14    0       0.026580      2.020240      6.057410    -0.090131    0.010373    0.062212
            15    0       2.010490      0.003310      6.085500     0.075918    0.038257   -0.097235
            16    0       2.034660      2.039110      4.025150    -0.056986    0.031165    0.047264
            17    0       8.052290      4.009770      4.061220     0.100990    0.092496   -0.102942
            18    0       8.043820      6.045440      6.058970     0.074842    0.031602   -0.093099
            19    0       2.017280      4.043490      6.083200    -0.012230    0.038512   -0.114528
            20    0       2.033990      6.078480      3.993500    -0.031565   -0.125416    0.154073
            21    0       4.010760      3.986290      8.044420     0.091141    0.244551    0.093221
            22    0       4.048760      6.019910      2.024940     0.008350    0.129291   -0.096455
            23    0       6.068190      4.016520      2.011680     0.013433    0.017101    0.045482
            24    0       6.136080      6.011630      0.038090    -0.362634    0.174023   -0.136033
            25    0       4.056330      0.008730      4.040010    -0.072631    0.009925   -0.015088
            26    0       4.019040      2.069250      6.063560     0.016133   -0.231163   -0.012977
            27    0       6.052270      0.019840      6.046150     0.062555   -0.077794    0.156126
            28    0       6.089900      1.974150      4.075350    -0.013684    0.162801   -0.088758
            29    0       4.050860      4.031110      4.060260    -0.040540    0.040939   -0.073299
            30    0       4.037460      6.115370      6.029100     0.036827   -0.217906    0.126215
            31    0       6.070760      4.030290      6.065870    -0.066178    0.007787   -0.021427
            32    0       6.076550      6.046760      3.992030    -0.004241    0.047855    0.129535
 Energy
       -119.183283300000
 PlusStress:  xx          yy          zz          yz          xz          xy
         3.16937     2.83573     2.82739    -0.06441     0.09719    -0.04899
 Feature   EFS_by	VASP
END_CFG

BEGIN_CFG
 Size
    32
 Supercell
         8.080400      0.000000      0.000000
         0.000000      8.080400      0.000000
         0.000000      0.000000      8.080400
 AtomData:  id type       cartes_x      cartes_y      cartes_z           fx          fy          fz
             1    0       8.079560      8.057180      8.039200    -0.074429    0.148813    0.142293
             2    0       8.067310      2.029510      2.030320     0.063134   -0.040356   -0.007244
             3    0       2.018840      0.031090      2.079630     0.010416   -0.064210   -0.235961
             4    0       2.014320      2.009700      0.022350    -0.044175    0.004263   -0.016862
             5    0       4.026550      0.011260      8.078260     0.047202   -0.070148    0.045646
             6    0       4.056710      2.027350      2.031170    -0.119568    0.055274    0.034883
             7    0       6.064000      0.059310      2.027220     0.051683   -0.253168   -0.008947
             8    0       6.025210      2.004800      0.043010     0.185722    0.029994   -0.228633
             9    0       8.051810      4.046560      8.022440     0.125485   -0.176524    0.200093
            10    0       8.055070      6.070800      2.022920     0.130159   -0.042213    0.049939
            11    0       2.013870      4.078790      1.963000    -0.037577   -0.163303    0.184837
            12    0       1.986370      6.066940      8.059070     0.114367    0.019026    0.038008
            13    0       0.041560      8.074840      4.094930    -0.139701    0.065065   -0.147405
            14    0       0.029440      2.020270      6.057170    -0.097322    0.010268    0.071242
            15    0       2.009510      0.003730      6.088200     0.084650    0.042568   -0.109499
            16    0       2.036220      2.041270      4.023520    -0.062763    0.037101    0.055424
            17    0       8.049260      4.006470      4.063450     0.116438    0.104941   -0.115775
            18    0       8.039820      6.043810      6.058720     0.086614    0.035705   -0.109996
            19    0       2.016960      4.043890      6.085630    -0.017291    0.046793   -0.134321
            20    0       2.035510      6.080360      3.988460    -0.038518   -0.142940    0.174686
            21    0       4.007570      3.980550      8.040500     0.106466    0.278455    0.110304
            22    0       4.049720      6.015550      2.025380     0.013468    0.143745   -0.113411
            23    0       6.069090      4.013890      2.010790     0.011052    0.019384    0.053431
            24    0       6.144130      6.006390      0.042180    -0.416006    0.198673   -0.151891
            25    0       4.058040      0.009720      4.039970    -0.079113    0.012803   -0.017574
            26    0       4.016680      2.074470      6.063920     0.020998   -0.261469   -0.019421
            27    0       6.051460      0.021960      6.044760     0.066183   -0.086925    0.175642
            28    0       6.093210      1.969210      4.079170    -0.018348    0.184082   -0.099458
            29    0       4.051990      4.030150      4.062410    -0.043055    0.046159   -0.082381
            30    0       4.037190      6.121260      6.025760     0.041836   -0.242906    0.140228
            31    0       6.071870      4.029190      6.066470    -0.080566    0.008523   -0.024669
            32    0       6.078370      6.045310      3.986800    -0.007478    0.052505    0.147022
 Energy
       -119.155533030000
 PlusStress:  xx          yy          zz          yz          xz          xy
         3.26128     2.88769     2.86736    -0.07373     0.11454    -0.05929
 Feature   EFS_by	VASP
END_CFG

BEGIN_CFG
 Size
    32
 Supercell
         8.080400      0.000000      0.000000
         0.000000      8.080400      0.000000
         0.000000      0.000000      8.080400
 AtomData:  id type       cartes_x      cartes_y      cartes_z           fx          fy          fz
             1    0       8.079370      8.055030      8.035220    -0.081776    0.167260    0.159714
             2    0       8.066060      2.030400      2.031360     0.074014   -0.041737   -0.011691
             3    0       2.018740      0.034140      2.085340     0.009314   -0.069345   -0.263447
             4    0       2.013700      2.008670      0.024580    -0.056299    0.002126   -0.016059
             5    0       4.025230      0.012320      8.078100     0.052742   -0.082847    0.051938
             6    0       4.058220      2.028160      2.032330    -0.132589    0.061616    0.041338
             7    0       6.064450      0.064970      2.027940     0.055088   -0.283500   -0.010244
             8    0       6.021910      2.003290      0.047050     0.205704    0.033088   -0.254732
             9    0       8.049060      4.046990      8.016850     0.146623   -0.204227    0.223551
            10    0       8.052660      6.071790      2.023270     0.152165   -0.042598    0.057903
            11    0       2.013210      4.082470      1.957490    -0.044981   -0.179836    0.203648
            12    0       1.983110      6.067640      8.056960     0.128562    0.021180    0.044193
            13    0       0.045560      8.074370      4.100260    -0.152183    0.067375   -0.162255
            14    0       0.032270      2.020300      6.056940    -0.103959    0.010145    0.080548
            15    0       2.008560      0.004160      6.090870     0.093574    0.046770   -0.121589
            16    0       2.037760      2.043450      4.021900    -0.068491    0.043197    0.063606
            17    0       8.046260      4.003200      4.065640     0.132238    0.117464   -0.128368
            18    0       8.035820      6.042200      6.058430     0.098476    0.040150   -0.127120
            19    0       2.016630      4.044320      6.088030    -0.022734    0.054990   -0.154817
            20    0       2.037030      6.082200      3.983460    -0.045501   -0.160512    0.195174
            21    0       4.004400      3.974890      8.036600     0.122028    0.312753    0.128454
            22    0       4.050680      6.011220      2.025780     0.018548    0.157603   -0.130557
            23    0       6.070010      4.011260      2.009920     0.008249    0.021669    0.061724
            24    0       6.152080      6.001200      0.046230    -0.469668    0.223875   -0.167555
            25    0       4.059730      0.010710      4.039930    -0.085083    0.016054   -0.019786
            26    0       4.014330      2.079610      6.064280     0.026532   -0.292416   -0.026893
            27    0       6.050660      0.024070      6.043430     0.069012   -0.096068    0.195059
            28    0       6.096510      1.964310      4.082970    -0.023971    0.205581   -0.110341
            29    0       4.053120      4.029200      4.064540    -0.045182    0.051611   -0.091269
            30    0       4.036940      6.127090      6.022470     0.046589   -0.267320    0.153745
            31    0       6.072940      4.028090      6.067060    -0.095682    0.008874   -0.028365
            32    0       6.080190      6.043870      3.981600    -0.011356    0.057060    0.164724
 Energy
       -119.124700890000
 PlusStress:  xx          yy          zz          yz          xz          xy
         3.36484     2.95544     2.91384    -0.08259     0.13313    -0.07016
 Feature   EFS_by	VASP
END_CFG
BEGIN_CFG
 Size
    32
 Supercell
         8.080400      0.000000      0.000000
         0.000000      8.080400      0.000000
         0.000000      0.000000      8.080400
 AtomData:  id type       cartes_x      cartes_y      cartes_z           fx          fy          fz
             1    0       8.079150      8.052920      8.031280    -0.089333    0.185657    0.177554
             2    0       8.064830      2.031280      2.032390     0.085278   -0.042943   -0.016534