BEGIN_CFG
 Size
    8
 Supercell
         0.000000      5.431000      5.431000
         5.431000      0.000000      5.431000
         5.431000      5.431000      0.000000
 AtomData:  id type       cartes_x      cartes_y      cartes_z           fx          fy          fz
             1    0       -0.130725      1.659965      -0.213287     0.000000    0.000000    0.000000
             2    0       1.306957      4.014360      -1.378323     0.000000    0.000000    0.000000
             3    0       2.002717      -2.985265      6.293599     0.000000    0.000000    0.000000
             4    0       4.201179      2.788138      2.727639     0.000000    0.000000    0.000000
             5    0       3.493572      -0.995571      5.875934     0.000000    0.000000    0.000000
             6    0       -2.043390      6.014814      4.201450     0.000000    0.000000    0.000000
             7    0       7.422460      6.147955      2.471809     0.000000    0.000000    0.000000
             8    0       5.522734      5.130750      1.719931     0.000000    0.000000    0.000000
 Energy
        0
 PlusStress:  xx          yy          zz          yz          xz          xy
         0.00000     0.00000     0.00000     0.00000     0.00000     0.00000
 Feature   EFS_by	VASP
END_CFG
