BEGIN_CFG
 Size
    32
 Supercell
         8.095800      0.000000      0.000000
         0.000000      8.095800      0.000000
         0.000000      0.000000      8.095800
 AtomData:  id type       cartes_x      cartes_y      cartes_z           fx          fy          fz
             1    0       -14460355.699457      12992683.469282      -2603897.259842     0.000000    0.000000    0.000000
             2    0       39039307.180158      -355238845.168343      -215549012.286860     0.000000    0.000000    0.000000
             3    0       77058308519.010330      -25085169661.102184      -61616163327.566231     0.000000    0.000000    0.000000
             4    0       -4277631649.584793      3262822158.691845      722809360.196535     0.000000    0.000000    0.000000
             5    0       34881494.129269      28223039.990298      3485318.337115     0.000000    0.000000    0.000000
             6    0       -894238.312573      -312538.040776      513299.768242     0.000000    0.000000    0.000000
             7    0       -58233154316.321465      153683836.429298      -69113142993.616211     0.000000    0.000000    0.000000
             8    0       827263.151767      163250.121819      -636931.976369     0.000000    0.000000    0.000000
             9    0       -214461.758858      19706321.095121      -71716937.356039     0.000000    0.000000    0.000000
            10    0       -607754.406466      312340.011089      365678.894322     0.000000    0.000000    0.000000
            11    0       -760213.965561      -3001883.081814      3462722.769823     0.000000    0.000000    0.000000
            12    0       1420465.084680      2714327.103021      -3772445.019136     0.000000    0.000000    0.000000
            13    0       -1749218594.486857      603692836.717322      458791716.157671     0.000000    0.000000    0.000000
            14    0       -3551636.748564      1479993.762303      1402420.458758     0.000000    0.000000    0.000000
            15    0       76031.662064      150218.017378      124239.432180     0.000000    0.000000    0.000000
            16    0       9943295.830980      2168237.868115      4282121.249423     0.000000    0.000000    0.000000
            17    0       -14050959316.142691      20528204706.708420      130314124354.522583     0.000000    0.000000    0.000000
            18    0       69622585066.820709      107435999512.861450      -63820189733.970123     0.000000    0.000000    0.000000
            19    0       404438295.330763      -176912466.704173      437472297.640533     0.000000    0.000000    0.000000
            20    0       -1435665.211011      194160.496179      -735976.464973     0.000000    0.000000    0.000000
            21    0       -20912518.111776      14494197.626145      3673755.966676     0.000000    0.000000    0.000000
            22    0       -44784.394664      2777985.235498      -2271474.180551     0.000000    0.000000    0.000000
            23    0       -249646503.580699      -76262529.205516      -430660600.144342     0.000000    0.000000    0.000000
            24    0       -50544516.955374      335284067.143940      289851981.738979     0.000000    0.000000    0.000000
            25    0       -14245256.662838      103048488.054317      99397159.684730     0.000000    0.000000    0.000000
            26    0       -247439172.454695      1097401930.061820      15971217.058529     0.000000    0.000000    0.000000
            27    0       299521.618550      3344459.369942      -1255672.248786     0.000000    0.000000    0.000000
            28    0       5293304.996033      826461.631146      759324.739444     0.000000    0.000000    0.000000
            29    0       -68282831343.788582      -107881452905.403305      62926990866.699219     0.000000    0.000000    0.000000
            30    0       -356731.519255      -392847.371949      843687.156106     0.000000    0.000000    0.000000
            31    0       592505.414087      -16749901.733481      -1062942.028072     0.000000    0.000000    0.000000
            32    0       21204056.976524      -14191537.668451      -4559481.134927     0.000000    0.000000    0.000000
 Energy
        0
 PlusStress:  xx          yy          zz          yz          xz          xy
         0.00000     0.00000     0.00000     0.00000     0.00000     0.00000
 Feature   EFS_by	VASP
END_CFG
