BEGIN_CFG
 Size
    32
 Supercell
         8.095800      0.000000      0.000000
         0.000000      8.095800      0.000000
         0.000000      0.000000      8.095800
 AtomData:  id type       cartes_x      cartes_y      cartes_z           fx          fy          fz
             1    0       0.081164      -0.045292      0.158415     0.000000    0.000000    0.000000
             2    0       -0.100128      1.951011      1.805626     0.000000    0.000000    0.000000
             3    0       2.114272      0.199045      1.891586     0.000000    0.000000    0.000000
             4    0       2.110277      1.983541      0.007515     0.000000    0.000000    0.000000
             5    0       0.085435      0.023622      3.978044     0.000000    0.000000    0.000000
             6    0       -0.080788      2.065092      6.097567     0.000000    0.000000    0.000000
             7    0       2.084869      -0.075293      5.968949     0.000000    0.000000    0.000000
             8    0       2.070793      2.098643      3.942285     0.000000    0.000000    0.000000
             9    0       0.028778      3.996334      0.045101     0.000000    0.000000    0.000000
            10    0       0.067164      5.899568      2.010360     0.000000    0.000000    0.000000
            11    0       2.023758      4.128907      1.907564     0.000000    0.000000    0.000000
            12    0       1.999454      6.078075      -0.124012     0.000000    0.000000    0.000000
            13    0       -0.073940      3.869322      3.887721     0.000000    0.000000    0.000000
            14    0       -0.075628      5.917197      6.061509     0.000000    0.000000    0.000000
            15    0       2.003152      4.037526      6.152088     0.000000    0.000000    0.000000
            16    0       1.951350      6.011156      3.852798     0.000000    0.000000    0.000000
            17    0       4.049280      -0.001427      0.024111     0.000000    0.000000    0.000000
            18    0       4.109980      2.011244      2.064144     0.000000    0.000000    0.000000
            19    0       6.048536      -0.186286      2.103025     0.000000    0.000000    0.000000
            20    0       6.186691      2.080232      0.065965     0.000000    0.000000    0.000000
            21    0       4.072369      0.181004      4.044095     0.000000    0.000000    0.000000
            22    0       4.045453      2.076858      6.059834     0.000000    0.000000    0.000000
            23    0       6.190356      -0.033564      6.293904     0.000000    0.000000    0.000000
            24    0       6.000969      2.025718      3.968961     0.000000    0.000000    0.000000
            25    0       4.088887      3.995685      0.203316     0.000000    0.000000    0.000000
            26    0       3.966943      6.069218      2.094557     0.000000    0.000000    0.000000
            27    0       6.075221      4.034473      2.070290     0.000000    0.000000    0.000000
            28    0       6.107465      6.063234      0.221539     0.000000    0.000000    0.000000
            29    0       3.974049      4.142447      4.083489     0.000000    0.000000    0.000000
            30    0       3.942395      6.092459      6.080866     0.000000    0.000000    0.000000
            31    0       6.056187      4.174348      6.053035     0.000000    0.000000    0.000000
            32    0       5.965036      6.242112      4.182035     0.000000    0.000000    0.000000
 Energy
        0
 PlusStress:  xx          yy          zz          yz          xz          xy
         0.00000     0.00000     0.00000     0.00000     0.00000     0.00000
 Feature   EFS_by	VASP
END_CFG
