BEGIN_CFG
 Size
    8
 Supercell
         0.000000      5.431000      5.431000
         5.431000      0.000000      5.431000
         5.431000      5.431000      0.000000
 AtomData:  id type       cartes_x      cartes_y      cartes_z           fx          fy          fz
             1    0       -0.035230      -0.404821      2.269144     0.000000    0.000000    0.000000
             2    0       1.876999      1.308131      0.846195     0.000000    0.000000    0.000000
             3    0       2.097054      -1.943635      2.886055     0.000000    0.000000    0.000000
             4    0       3.547522      2.951271      1.808932     0.000000    0.000000    0.000000
             5    0       -0.653687      1.858791      3.452749     0.000000    0.000000    0.000000
             6    0       3.505163      6.459489      0.050701     0.000000    0.000000    0.000000
             7    0       4.877059      4.198256      5.354942     0.000000    0.000000    0.000000
             8    0       6.528922      7.297991      5.081511     0.000000    0.000000    0.000000
 Energy
        0
 PlusStress:  xx          yy          zz          yz          xz          xy
         0.00000     0.00000     0.00000     0.00000     0.00000     0.00000
 Feature   EFS_by	VASP
END_CFG
