BEGIN_CFG
 Size
    32
 Supercell
         8.095800      0.000000      0.000000
         0.000000      8.095800      0.000000
         0.000000      0.000000      8.095800
 AtomData:  id type       cartes_x      cartes_y      cartes_z           fx          fy          fz
             1    0       -0.022295      -0.020899      0.067595     0.000000    0.000000    0.000000
             2    0       -0.137108      2.018693      2.008033     0.000000    0.000000    0.000000
             3    0       1.911800      -0.058204      2.156646     0.000000    0.000000    0.000000
             4    0       2.036023      1.930580      0.237561     0.000000    0.000000    0.000000
             5    0       0.115743      0.053121      3.973568     0.000000    0.000000    0.000000
             6    0       0.087935      2.021186      5.997561     0.000000    0.000000    0.000000
             7    0       1.981919      -0.057236      5.841582     0.000000    0.000000    0.000000
             8    0       2.168450      2.078144      4.006270     0.000000    0.000000    0.000000
             9    0       -0.021788      4.203816      -0.060280     0.000000    0.000000    0.000000
            10    0       0.101974      6.035597      2.011423     0.000000    0.000000    0.000000
            11    0       1.867715      4.048285      2.076378     0.000000    0.000000    0.000000
            12    0       1.825780      6.139404      0.034580     0.000000    0.000000    0.000000
            13    0       0.143529      4.000509      4.151679     0.000000    0.000000    0.000000
            14    0       -0.040807      5.965259      5.999574     0.000000    0.000000    0.000000
            15    0       2.066926      4.017572      6.137384     0.000000    0.000000    0.000000
            16    0       1.961445      5.973720      4.027881     0.000000    0.000000    0.000000
            17    0       3.892589      -0.031231      0.038513     0.000000    0.000000    0.000000
            18    0       4.178184      2.027682      2.225769     0.000000    0.000000    0.000000
            19    0       6.129134      -0.042687      1.923574     0.000000    0.000000    0.000000
            20    0       6.086784      2.089087      -0.087796     0.000000    0.000000    0.000000
            21    0       4.189168      -0.092527      4.023887     0.000000    0.000000    0.000000
            22    0       4.081603      1.937912      6.063056     0.000000    0.000000    0.000000
            23    0       6.113615      0.143972      6.103517     0.000000    0.000000    0.000000
            24    0       6.147084      2.041769      4.099491     0.000000    0.000000    0.000000
            25    0       3.949808      4.295106      -0.039226     0.000000    0.000000    0.000000
            26    0       3.936400      6.027342      1.950947     0.000000    0.000000    0.000000
            27    0       6.060649      4.124839      2.138472     0.000000    0.000000    0.000000
            28    0       5.985369      6.169960      -0.018842     0.000000    0.000000    0.000000
            29    0       3.987064      4.100950      3.976434     0.000000    0.000000    0.000000
            30    0       4.069247      6.081177      6.047485     0.000000    0.000000    0.000000
            31    0       6.160507      3.998568      6.031724     0.000000    0.000000    0.000000
            32    0       6.279556      6.086219      3.992383     0.000000    0.000000    0.000000
 Energy
        0
 PlusStress:  xx          yy          zz          yz          xz          xy
         0.00000     0.00000     0.00000     0.00000     0.00000     0.00000
 Feature   EFS_by	VASP
END_CFG
