BEGIN_CFG
 Size
    32
 Supercell
         8.095800      0.000000      0.000000
         0.000000      8.095800      0.000000
         0.000000      0.000000      8.095800
 AtomData:  id type       cartes_x      cartes_y      cartes_z           fx          fy          fz
             1    0       0.035025      0.033761      -0.051900     0.000000    0.000000    0.000000
             2    0       -0.045670      1.871509      2.076949     0.000000    0.000000    0.000000
             3    0       1.995945      0.039259      1.943724     0.000000    0.000000    0.000000
             4    0       2.043866      1.989978      -0.014434     0.000000    0.000000    0.000000
             5    0       0.022246      0.143585      4.135166     0.000000    0.000000    0.000000
             6    0       -0.030741      2.080879      6.099107     0.000000    0.000000    0.000000
             7    0       2.039228      0.019992      6.174099     0.000000    0.000000    0.000000
             8    0       2.065113      1.931297      3.914718     0.000000    0.000000    0.000000
             9    0       0.101781      3.940569      0.180304     0.000000    0.000000    0.000000
            10    0       -0.049213      6.220009      2.009824     0.000000    0.000000    0.000000
            11    0       1.998742      3.872437      2.051299     0.000000    0.000000    0.000000
            12    0       1.951152      5.989235      -0.107387     0.000000    0.000000    0.000000
            13    0       -0.001477      4.052020      3.897188     0.000000    0.000000    0.000000
            14    0       -0.076498      5.987622      6.193049     0.000000    0.000000    0.000000
            15    0       2.043754      4.013057      5.943754     0.000000    0.000000    0.000000
            16    0       1.901829      6.175495      3.973397     0.000000    0.000000    0.000000
            17    0       4.146595      0.014876      0.142380     0.000000    0.000000    0.000000
            18    0       4.134987      2.141903      1.985646     0.000000    0.000000    0.000000
            19    0       6.023660      0.022886      2.134728     0.000000    0.000000    0.000000
            20    0       6.235592      2.052030      0.035604     0.000000    0.000000    0.000000
            21    0       4.093552      -0.066598      3.945214     0.000000    0.000000    0.000000
            22    0       4.115682      1.919959      6.119074     0.000000    0.000000    0.000000
            23    0       6.128309      -0.008332      6.140391     0.000000    0.000000    0.000000
            24    0       6.082461      2.120836      4.065202     0.000000    0.000000    0.000000
            25    0       3.993446      3.960188      -0.114919     0.000000    0.000000    0.000000
            26    0       3.907971      5.962747      2.007341     0.000000    0.000000    0.000000
            27    0       6.102239      4.163662      1.967759     0.000000    0.000000    0.000000
            28    0       6.060302      6.069356      0.133174     0.000000    0.000000    0.000000
            29    0       3.984770      4.019094      4.054905     0.000000    0.000000    0.000000
            30    0       3.992264      6.282676      6.068582     0.000000    0.000000    0.000000
            31    0       5.922591      4.052299      5.930365     0.000000    0.000000    0.000000
            32    0       6.137473      5.993433      4.059532     0.000000    0.000000    0.000000
 Energy
        0
 PlusStress:  xx          yy          zz          yz          xz          xy
         0.00000     0.00000     0.00000     0.00000     0.00000     0.00000
 Feature   EFS_by	VASP
END_CFG
