BEGIN_CFG
 Size
    32
 Supercell
         8.095800      0.000000      0.000000
         0.000000      8.095800      0.000000
         0.000000      0.000000      8.095800
 AtomData:  id type       cartes_x      cartes_y      cartes_z           fx          fy          fz
             1    0       2.344644      3.601655      8.174147     0.000000    0.000000    0.000000
             2    0       2.401259      5.548533      10.097674     0.000000    0.000000    0.000000
             3    0       4.380596      3.561161      10.118123     0.000000    0.000000    0.000000
             4    0       4.508104      5.524979      8.260863     0.000000    0.000000    0.000000
             5    0       2.418475      3.620149      12.155745     0.000000    0.000000    0.000000
             6    0       2.430296      5.679237      14.257836     0.000000    0.000000    0.000000
             7    0       4.401097      3.592111      14.220571     0.000000    0.000000    0.000000
             8    0       4.386172      5.621683      12.210336     0.000000    0.000000    0.000000
             9    0       2.369146      7.617166      8.157749     0.000000    0.000000    0.000000
            10    0       2.448153      9.680289      10.169036     0.000000    0.000000    0.000000
            11    0       4.338536      7.617522      10.163851     0.000000    0.000000    0.000000
            12    0       4.569482      9.669067      8.276737     0.000000    0.000000    0.000000
            13    0       2.347455      7.575117      12.205872     0.000000    0.000000    0.000000
            14    0       2.361960      9.680771      14.134310     0.000000    0.000000    0.000000
            15    0       4.446659      7.659627      14.245470     0.000000    0.000000    0.000000
            16    0       4.483299      9.602372      12.155196     0.000000    0.000000    0.000000
            17    0       6.576738      3.567395      8.123394     0.000000    0.000000    0.000000
            18    0       6.504232      5.476557      10.254213     0.000000    0.000000    0.000000
            19    0       8.463251      3.522930      10.180716     0.000000    0.000000    0.000000
            20    0       8.336872      5.529111      8.101205     0.000000    0.000000    0.000000
            21    0       6.418253      3.579322      12.334967     0.000000    0.000000    0.000000
            22    0       6.312766      5.592228      14.299568     0.000000    0.000000    0.000000
            23    0       8.554971      3.453471      14.240133     0.000000    0.000000    0.000000
            24    0       8.371519      5.624062      12.356939     0.000000    0.000000    0.000000
            25    0       6.507377      7.618757      8.336774     0.000000    0.000000    0.000000
            26    0       6.583355      9.727246      10.308888     0.000000    0.000000    0.000000
            27    0       8.428349      7.444938      10.242380     0.000000    0.000000    0.000000
            28    0       8.542976      9.605183      8.073060     0.000000    0.000000    0.000000
            29    0       6.526875      7.644935      12.400094     0.000000    0.000000    0.000000
            30    0       6.425487      9.664757      14.360902     0.000000    0.000000    0.000000
            31    0       8.494314      7.665370      14.335372     0.000000    0.000000    0.000000
            32    0       8.496665      9.578828      12.217756     0.000000    0.000000    0.000000
 Energy
        0
 PlusStress:  xx          yy          zz          yz          xz          xy
         0.00000     0.00000     0.00000     0.00000     0.00000     0.00000
 Feature   EFS_by	VASP
END_CFG
