BEGIN_CFG
 Size
    32
 Supercell
         8.095800      0.000000      0.000000
         0.000000      8.095800      0.000000
         0.000000      0.000000      8.095800
 AtomData:  id type       cartes_x      cartes_y      cartes_z           fx          fy          fz
             1    0       0.018042      0.043870      0.016902     0.000000    0.000000    0.000000
             2    0       -0.088311      1.959207      1.944251     0.000000    0.000000    0.000000
             3    0       2.042006      -0.004834      1.955805     0.000000    0.000000    0.000000
             4    0       2.096798      1.981813      -0.076045     0.000000    0.000000    0.000000
             5    0       0.034507      0.005413      3.945503     0.000000    0.000000    0.000000
             6    0       0.138677      1.914969      5.964142     0.000000    0.000000    0.000000
             7    0       2.189345      -0.000441      6.066395     0.000000    0.000000    0.000000
             8    0       1.999404      2.107390      3.922536     0.000000    0.000000    0.000000
             9    0       0.088541      4.073768      -0.250930     0.000000    0.000000    0.000000
            10    0       -0.126023      6.039067      1.995647     0.000000    0.000000    0.000000
            11    0       2.009774      4.020168      1.960649     0.000000    0.000000    0.000000
            12    0       2.040478      6.049289      -0.036060     0.000000    0.000000    0.000000
            13    0       -0.004434      3.941747      4.095324     0.000000    0.000000    0.000000
            14    0       -0.042030      6.109007      5.984697     0.000000    0.000000    0.000000
            15    0       2.138069      3.915026      6.172085     0.000000    0.000000    0.000000
            16    0       2.046916      6.035386      4.116490     0.000000    0.000000    0.000000
            17    0       4.214195      0.063886      -0.095508     0.000000    0.000000    0.000000
            18    0       4.016471      1.924610      2.142468     0.000000    0.000000    0.000000
            19    0       6.017207      -0.024850      2.029515     0.000000    0.000000    0.000000
            20    0       6.089168      2.160099      0.140419     0.000000    0.000000    0.000000
            21    0       3.980447      -0.060293      4.189493     0.000000    0.000000    0.000000
            22    0       4.054390      2.069771      6.148659     0.000000    0.000000    0.000000
            23    0       5.958942      0.099979      6.166209     0.000000    0.000000    0.000000
            24    0       6.098300      2.098938      3.952549     0.000000    0.000000    0.000000
            25    0       4.014213      4.244497      -0.063848     0.000000    0.000000    0.000000
            26    0       3.988827      6.236134      1.987963     0.000000    0.000000    0.000000
            27    0       5.935761      4.150058      2.194933     0.000000    0.000000    0.000000
            28    0       6.136236      5.957408      0.028224     0.000000    0.000000    0.000000
            29    0       4.028593      4.022844      4.042848     0.000000    0.000000    0.000000
            30    0       3.933970      5.899279      6.127820     0.000000    0.000000    0.000000
            31    0       6.049268      3.929044      6.137956     0.000000    0.000000    0.000000
            32    0       6.068658      6.110475      4.178583     0.000000    0.000000    0.000000
 Energy
        0
 PlusStress:  xx          yy          zz          yz          xz          xy
         0.00000     0.00000     0.00000     0.00000     0.00000     0.00000
 Feature   EFS_by	VASP
END_CFG
