BEGIN_CFG
 Size
    8
 Supercell
         0.000000      5.431000      5.431000
         5.431000      0.000000      5.431000
         5.431000      5.431000      0.000000
 AtomData:  id type       cartes_x      cartes_y      cartes_z           fx          fy          fz
             1    0       -220.898921      91.266046      -77.175429     0.000000    0.000000    0.000000
             2    0       241.381215      314.556481      -26.247050     0.000000    0.000000    0.000000
             3    0       -12777.835251      5018.512352      89502.861988     0.000000    0.000000    0.000000
             4    0       50203.638983      7941.336807      -72407.605308     0.000000    0.000000    0.000000
             5    0       -5.229778      150.029994      85.793303     0.000000    0.000000    0.000000
             6    0       8218.648314      21124.370880      -9672.353060     0.000000    0.000000    0.000000
             7    0       -58615.605653      -29881.941355      81544.862565     0.000000    0.000000    0.000000
             8    0       12977.612414      -4736.417223      -88928.420040     0.000000    0.000000    0.000000
 Energy
        0
 PlusStress:  xx          yy          zz          yz          xz          xy
         0.00000     0.00000     0.00000     0.00000     0.00000     0.00000
 Feature   EFS_by	VASP
END_CFG
