BEGIN_CFG
 Size
    8
 Supercell
         0.000000      5.431000      5.431000
         5.431000      0.000000      5.431000
         5.431000      5.431000      0.000000
 AtomData:  id type       cartes_x      cartes_y      cartes_z           fx          fy          fz
             1    0       -0.011022      0.038351      0.059668     0.000000    0.000000    0.000000
             2    0       2.741593      2.730102      -0.034803     0.000000    0.000000    0.000000
             3    0       2.648809      0.005649      2.656220     0.000000    0.000000    0.000000
             4    0       5.501297      2.646836      2.631770     0.000000    0.000000    0.000000
             5    0       -0.074501      2.670984      2.768203     0.000000    0.000000    0.000000
             6    0       2.817673      5.379786      2.792538     0.000000    0.000000    0.000000
             7    0       2.679363      2.782966      5.369240     0.000000    0.000000    0.000000
             8    0       5.415384      5.415817      5.489778     0.000000    0.000000    0.000000
 Energy
        0
 PlusStress:  xx          yy          zz          yz          xz          xy
         0.00000     0.00000     0.00000     0.00000     0.00000     0.00000
 Feature   EFS_by	VASP
END_CFG
