BEGIN_CFG
 Size
    32
 Supercell
         8.095800      0.000000      0.000000
         0.000000      8.095800      0.000000
         0.000000      0.000000      8.095800
 AtomData:  id type       cartes_x      cartes_y      cartes_z           fx          fy          fz
             1    0       0.023298      0.052439      0.034985     0.000000    0.000000    0.000000
             2    0       0.071650      2.019707      2.010072     0.000000    0.000000    0.000000
             3    0       2.005685      -0.014049      2.133493     0.000000    0.000000    0.000000
             4    0       2.006207      2.019964      0.025814     0.000000    0.000000    0.000000
             5    0       0.022867      -0.075092      3.992309     0.000000    0.000000    0.000000
             6    0       0.061089      2.047896      6.162379     0.000000    0.000000    0.000000
             7    0       1.870065      -0.026921      6.158714     0.000000    0.000000    0.000000
             8    0       2.000088      2.039583      4.091869     0.000000    0.000000    0.000000
             9    0       -0.052655      4.124638      -0.132175     0.000000    0.000000    0.000000
            10    0       -0.048635      6.028950      1.933059     0.000000    0.000000    0.000000
            11    0       2.136729      4.133822      2.009336     0.000000    0.000000    0.000000
            12    0       1.987554      6.070120      -0.036156     0.000000    0.000000    0.000000
            13    0       0.059991      3.990149      4.053416     0.000000    0.000000    0.000000
            14    0       -0.002359      6.063510      5.996529     0.000000    0.000000    0.000000
            15    0       1.934740      4.085088      6.097237     0.000000    0.000000    0.000000
            16    0       1.999748      6.158429      3.974085     0.000000    0.000000    0.000000
            17    0       4.018351      -0.088748      -0.009090     0.000000    0.000000    0.000000
            18    0       4.014951      2.008654      1.979300     0.000000    0.000000    0.000000
            19    0       6.142468      0.020530      1.991489     0.000000    0.000000    0.000000
            20    0       6.089098      1.929862      -0.030982     0.000000    0.000000    0.000000
            21    0       4.026899      0.032857      4.069237     0.000000    0.000000    0.000000
            22    0       3.938850      1.983518      6.093484     0.000000    0.000000    0.000000
            23    0       6.059299      -0.008082      6.067089     0.000000    0.000000    0.000000
            24    0       6.133533      2.005712      4.077967     0.000000    0.000000    0.000000
            25    0       4.147895      4.030466      0.085210     0.000000    0.000000    0.000000
            26    0       4.045698      6.080872      2.023347     0.000000    0.000000    0.000000
            27    0       6.167694      4.095803      2.162526     0.000000    0.000000    0.000000
            28    0       6.057413      6.165172      -0.028309     0.000000    0.000000    0.000000
            29    0       4.012800      3.974968      4.043209     0.000000    0.000000    0.000000
            30    0       4.063021      5.987457      6.052685     0.000000    0.000000    0.000000
            31    0       6.038812      4.092206      6.054935     0.000000    0.000000    0.000000
            32    0       6.084832      6.109026      4.035256     0.000000    0.000000    0.000000
 Energy
        0
 PlusStress:  xx          yy          zz          yz          xz          xy
         0.00000     0.00000     0.00000     0.00000     0.00000     0.00000
 Feature   EFS_by	VASP
END_CFG
