BEGIN_CFG
 Size
    32
 Supercell
         8.095800      0.000000      0.000000
         0.000000      8.095800      0.000000
         0.000000      0.000000      8.095800
 AtomData:  id type       cartes_x      cartes_y      cartes_z           fx          fy          fz
             1    0       0.013742      0.024054      0.024000     0.000000    0.000000    0.000000
             2    0       -0.054337      1.978045      1.963914     0.000000    0.000000    0.000000
             3    0       1.964232      0.001922      2.004568     0.000000    0.000000    0.000000
             4    0       1.957447      2.015622      -0.150822     0.000000    0.000000    0.000000
             5    0       0.027897      -0.012821      4.079778     0.000000    0.000000    0.000000
             6    0       -0.035737      1.952156      5.859431     0.000000    0.000000    0.000000
             7    0       1.983032      0.205407      6.028366     0.000000    0.000000    0.000000
             8    0       2.006378      2.036695      4.028909     0.000000    0.000000    0.000000
             9    0       -0.009882      4.046096      0.127788     0.000000    0.000000    0.000000
            10    0       0.016509      6.079957      2.087209     0.000000    0.000000    0.000000
            11    0       2.094951      4.054222      2.121205     0.000000    0.000000    0.000000
            12    0       1.977338      6.192254      -0.050408     0.000000    0.000000    0.000000
            13    0       0.106757      4.060180      3.872499     0.000000    0.000000    0.000000
            14    0       0.037558      5.911708      6.085912     0.000000    0.000000    0.000000
            15    0       2.132159      3.991365      6.157060     0.000000    0.000000    0.000000
            16    0       2.030605      6.142308      4.145658     0.000000    0.000000    0.000000
            17    0       4.198537      0.064326      0.016414     0.000000    0.000000    0.000000
            18    0       3.976562      2.028836      2.082203     0.000000    0.000000    0.000000
            19    0       6.035398      0.059866      2.057320     0.000000    0.000000    0.000000
            20    0       6.065028      1.999813      -0.036124     0.000000    0.000000    0.000000
            21    0       4.088782      -0.107045      3.978397     0.000000    0.000000    0.000000
            22    0       4.075052      2.018930      6.119001     0.000000    0.000000    0.000000
            23    0       5.967707      -0.120122      5.983346     0.000000    0.000000    0.000000
            24    0       6.065630      2.043135      3.990680     0.000000    0.000000    0.000000
            25    0       3.991582      4.045810      0.115039     0.000000    0.000000    0.000000
            26    0       4.019612      6.057184      2.041364     0.000000    0.000000    0.000000
            27    0       5.975385      4.042407      2.208311     0.000000    0.000000    0.000000
            28    0       6.049676      5.978362      0.053169     0.000000    0.000000    0.000000
            29    0       4.105070      3.968146      4.249739     0.000000    0.000000    0.000000
            30    0       4.217328      6.184851      6.128366     0.000000    0.000000    0.000000
            31    0       6.044077      4.192329      6.012633     0.000000    0.000000    0.000000
            32    0       6.134334      6.099138      3.872839     0.000000    0.000000    0.000000
 Energy
        0
 PlusStress:  xx          yy          zz          yz          xz          xy
         0.00000     0.00000     0.00000     0.00000     0.00000     0.00000
 Feature   EFS_by	VASP
END_CFG
