BEGIN_CFG
 Size
    32
 Supercell
         8.095800      0.000000      0.000000
         0.000000      8.095800      0.000000
         0.000000      0.000000      8.095800
 AtomData:  id type       cartes_x      cartes_y      cartes_z           fx          fy          fz
             1    0       -0.095853      -0.250853      -0.024221     0.000000    0.000000    0.000000
             2    0       0.050882      1.845035      1.985952     0.000000    0.000000    0.000000
             3    0       1.996011      0.029159      1.947408     0.000000    0.000000    0.000000
             4    0       1.973084      1.961052      -0.023826     0.000000    0.000000    0.000000
             5    0       -0.046647      -0.048949      4.095126     0.000000    0.000000    0.000000
             6    0       -0.078165      2.071504      6.005628     0.000000    0.000000    0.000000
             7    0       1.950979      -0.066922      6.108177     0.000000    0.000000    0.000000
             8    0       1.747592      2.017871      4.066678     0.000000    0.000000    0.000000
             9    0       -0.085225      4.093163      0.120752     0.000000    0.000000    0.000000
            10    0       -0.070313      6.107878      2.110202     0.000000    0.000000    0.000000
            11    0       1.874128      4.077281      1.969317     0.000000    0.000000    0.000000
            12    0       2.152609      6.218012      -0.013362     0.000000    0.000000    0.000000
            13    0       0.120984      4.131810      4.064202     0.000000    0.000000    0.000000
            14    0       -0.022295      6.014595      6.067996     0.000000    0.000000    0.000000
            15    0       2.055003      4.037771      5.968309     0.000000    0.000000    0.000000
            16    0       2.096628      6.121274      3.897778     0.000000    0.000000    0.000000
            17    0       4.195736      0.089192      -0.096265     0.000000    0.000000    0.000000
            18    0       4.054271      2.148644      2.102647     0.000000    0.000000    0.000000
            19    0       5.999918      -0.006179      2.174625     0.000000    0.000000    0.000000
            20    0       6.199436      2.034339      0.077529     0.000000    0.000000    0.000000
            21    0       4.136345      0.076177      4.075568     0.000000    0.000000    0.000000
            22    0       4.040869      2.066565      5.927544     0.000000    0.000000    0.000000
            23    0       6.068966      0.059244      6.124589     0.000000    0.000000    0.000000
            24    0       6.178152      2.089167      4.083869     0.000000    0.000000    0.000000
            25    0       4.142166      3.857096      0.084939     0.000000    0.000000    0.000000
            26    0       4.145466      6.009704      2.016093     0.000000    0.000000    0.000000
            27    0       6.141342      4.142189      2.123026     0.000000    0.000000    0.000000
            28    0       5.978648      6.018113      0.021899     0.000000    0.000000    0.000000
            29    0       4.003620      4.142013      3.989113     0.000000    0.000000    0.000000
            30    0       4.082320      6.082320      5.990210     0.000000    0.000000    0.000000
            31    0       6.045834      4.073617      5.996597     0.000000    0.000000    0.000000
            32    0       6.126110      6.036675      4.065420     0.000000    0.000000    0.000000
 Energy
        0
 PlusStress:  xx          yy          zz          yz          xz          xy
         0.00000     0.00000     0.00000     0.00000     0.00000     0.00000
 Feature   EFS_by	VASP
END_CFG
