BEGIN_CFG
 Size
    32
 Supercell
         8.095800      0.000000      0.000000
         0.000000      8.095800      0.000000
         0.000000      0.000000      8.095800
 AtomData:  id type       cartes_x      cartes_y      cartes_z           fx          fy          fz
             1    0       0.052925      0.147203      0.329093     0.000000    0.000000    0.000000
             2    0       0.047599      2.074189      2.097640     0.000000    0.000000    0.000000
             3    0       1.960036      -0.215420      2.078511     0.000000    0.000000    0.000000
             4    0       2.070871      2.104147      -0.065034     0.000000    0.000000    0.000000
             5    0       -0.100266      -0.063910      3.913343     0.000000    0.000000    0.000000
             6    0       0.053952      2.184192      6.153155     0.000000    0.000000    0.000000
             7    0       1.874061      0.038394      6.108585     0.000000    0.000000    0.000000
             8    0       2.137023      2.060461      4.001877     0.000000    0.000000    0.000000
             9    0       0.025945      4.068025      0.242803     0.000000    0.000000    0.000000
            10    0       -0.204381      6.038705      2.040883     0.000000    0.000000    0.000000
            11    0       2.041045      4.089695      2.066509     0.000000    0.000000    0.000000
            12    0       1.960226      6.085622      0.042613     0.000000    0.000000    0.000000
            13    0       0.012620      4.187186      3.892887     0.000000    0.000000    0.000000
            14    0       -0.083555      5.991850      6.013727     0.000000    0.000000    0.000000
            15    0       1.947632      3.943854      6.086695     0.000000    0.000000    0.000000
            16    0       1.943008      6.058688      4.106182     0.000000    0.000000    0.000000
            17    0       4.200540      -0.032774      -0.215214     0.000000    0.000000    0.000000
            18    0       4.240139      2.006545      1.954012     0.000000    0.000000    0.000000
            19    0       6.056545      -0.043127      2.109597     0.000000    0.000000    0.000000
            20    0       6.134364      2.003024      0.022789     0.000000    0.000000    0.000000
            21    0       4.102378      -0.014789      4.038954     0.000000    0.000000    0.000000
            22    0       4.061141      1.933811      6.194047     0.000000    0.000000    0.000000
            23    0       6.149349      0.100495      5.852902     0.000000    0.000000    0.000000
            24    0       6.088952      2.103053      4.064191     0.000000    0.000000    0.000000
            25    0       3.953021      4.191921      -0.047788     0.000000    0.000000    0.000000
            26    0       4.095342      6.226850      1.902144     0.000000    0.000000    0.000000
            27    0       6.039084      3.981395      1.987845     0.000000    0.000000    0.000000
            28    0       6.142659      5.988889      -0.024808     0.000000    0.000000    0.000000
            29    0       4.055666      4.087422      3.979410     0.000000    0.000000    0.000000
            30    0       4.017638      5.974004      6.029868     0.000000    0.000000    0.000000
            31    0       5.985939      3.958857      6.130102     0.000000    0.000000    0.000000
            32    0       6.067176      6.008514      4.145528     0.000000    0.000000    0.000000
 Energy
        0
 PlusStress:  xx          yy          zz          yz          xz          xy
         0.00000     0.00000     0.00000     0.00000     0.00000     0.00000
 Feature   EFS_by	VASP
END_CFG
