BEGIN_CFG
 Size
    32
 Supercell
         8.095800      0.000000      0.000000
         0.000000      8.095800      0.000000
         0.000000      0.000000      8.095800
 AtomData:  id type       cartes_x      cartes_y      cartes_z           fx          fy          fz
             1    0       0.049292      0.303711      0.570465     0.000000    0.000000    0.000000
             2    0       0.156596      2.298035      2.522783     0.000000    0.000000    0.000000
             3    0       2.212680      0.345132      2.445380     0.000000    0.000000    0.000000
             4    0       2.098789      2.356131      0.430070     0.000000    0.000000    0.000000
             5    0       0.253501      0.347344      4.355968     0.000000    0.000000    0.000000
             6    0       0.161055      2.421230      6.509324     0.000000    0.000000    0.000000
             7    0       2.047954      0.365827      6.548509     0.000000    0.000000    0.000000
             8    0       2.031788      2.463587      4.456425     0.000000    0.000000    0.000000
             9    0       0.245355      4.263881      0.530817     0.000000    0.000000    0.000000
            10    0       0.169206      6.332606      2.392789     0.000000    0.000000    0.000000
            11    0       2.134028      4.330067      2.540621     0.000000    0.000000    0.000000
            12    0       2.059620      6.539839      0.435725     0.000000    0.000000    0.000000
            13    0       0.099771      4.337924      4.513874     0.000000    0.000000    0.000000
            14    0       0.065278      6.468107      6.434968     0.000000    0.000000    0.000000
            15    0       2.058306      4.331453      6.527819     0.000000    0.000000    0.000000
            16    0       2.042615      6.318023      4.453351     0.000000    0.000000    0.000000
            17    0       4.101102      0.359635      0.435695     0.000000    0.000000    0.000000
            18    0       4.211307      2.454284      2.401923     0.000000    0.000000    0.000000
            19    0       6.139491      0.369596      2.523107     0.000000    0.000000    0.000000
            20    0       6.178967      2.410096      0.468951     0.000000    0.000000    0.000000
            21    0       4.106711      0.371381      4.551763     0.000000    0.000000    0.000000
            22    0       4.068417      2.337315      6.511007     0.000000    0.000000    0.000000
            23    0       6.240988      0.378103      6.602522     0.000000    0.000000    0.000000
            24    0       6.294758      2.358986      4.493304     0.000000    0.000000    0.000000
            25    0       4.150566      4.474527      0.426524     0.000000    0.000000    0.000000
            26    0       3.990029      6.342787      2.578873     0.000000    0.000000    0.000000
            27    0       6.233717      4.334720      2.402089     0.000000    0.000000    0.000000
            28    0       6.311275      6.339685      0.514360     0.000000    0.000000    0.000000
            29    0       4.268348      4.337176      4.574429     0.000000    0.000000    0.000000
            30    0       4.227979      6.487500      6.577184     0.000000    0.000000    0.000000
            31    0       6.263114      4.400189      6.522491     0.000000    0.000000    0.000000
            32    0       6.137947      6.374215      4.531780     0.000000    0.000000    0.000000
 Energy
        0
 PlusStress:  xx          yy          zz          yz          xz          xy
         0.00000     0.00000     0.00000     0.00000     0.00000     0.00000
 Feature   EFS_by	VASP
END_CFG
