BEGIN_CFG
 Size
    32
 Supercell
         8.095800      0.000000      0.000000
         0.000000      8.095800      0.000000
         0.000000      0.000000      8.095800
 AtomData:  id type       cartes_x      cartes_y      cartes_z           fx          fy          fz
             1    0       0.160626      -0.035166      0.101854     0.000000    0.000000    0.000000
             2    0       0.024927      2.129706      1.950447     0.000000    0.000000    0.000000
             3    0       2.086246      -0.086496      2.077475     0.000000    0.000000    0.000000
             4    0       2.063476      2.002032      0.004056     0.000000    0.000000    0.000000
             5    0       -0.018964      -0.031245      4.021901     0.000000    0.000000    0.000000
             6    0       -0.023359      1.973851      6.115955     0.000000    0.000000    0.000000
             7    0       2.097549      -0.138204      6.186465     0.000000    0.000000    0.000000
             8    0       1.910300      2.038153      4.036608     0.000000    0.000000    0.000000
             9    0       -0.015326      4.002344      -0.002615     0.000000    0.000000    0.000000
            10    0       0.070426      6.020790      1.971726     0.000000    0.000000    0.000000
            11    0       1.923175      4.015027      1.999083     0.000000    0.000000    0.000000
            12    0       2.092162      6.110510      0.032811     0.000000    0.000000    0.000000
            13    0       -0.106202      4.186778      4.097958     0.000000    0.000000    0.000000
            14    0       0.003018      5.982667      6.131899     0.000000    0.000000    0.000000
            15    0       2.196779      4.066191      5.990484     0.000000    0.000000    0.000000
            16    0       2.070903      6.133590      4.252295     0.000000    0.000000    0.000000
            17    0       4.025276      0.013290      -0.075287     0.000000    0.000000    0.000000
            18    0       4.066572      1.903494      1.975817     0.000000    0.000000    0.000000
            19    0       6.229470      0.077541      1.817552     0.000000    0.000000    0.000000
            20    0       6.134562      2.158694      -0.108379     0.000000    0.000000    0.000000
            21    0       4.110602      0.135972      4.053602     0.000000    0.000000    0.000000
            22    0       3.960564      2.060495      6.175199     0.000000    0.000000    0.000000
            23    0       6.235481      -0.156271      6.252428     0.000000    0.000000    0.000000
            24    0       5.987049      1.890249      4.075726     0.000000    0.000000    0.000000
            25    0       3.997818      4.060092      0.227384     0.000000    0.000000    0.000000
            26    0       3.948421      6.201540      1.915034     0.000000    0.000000    0.000000
            27    0       6.017881      4.012569      2.105439     0.000000    0.000000    0.000000
            28    0       5.882877      6.005911      -0.092200     0.000000    0.000000    0.000000
            29    0       3.937693      4.014492      3.957516     0.000000    0.000000    0.000000
            30    0       4.080655      6.142349      5.987581     0.000000    0.000000    0.000000
            31    0       5.996562      4.035830      6.010482     0.000000    0.000000    0.000000
            32    0       6.023234      6.181142      3.846608     0.000000    0.000000    0.000000
 Energy
        0
 PlusStress:  xx          yy          zz          yz          xz          xy
         0.00000     0.00000     0.00000     0.00000     0.00000     0.00000
 Feature   EFS_by	VASP
END_CFG
