BEGIN_CFG
 Size
    32
 Supercell
         8.095800      0.000000      0.000000
         0.000000      8.095800      0.000000
         0.000000      0.000000      8.095800
 AtomData:  id type       cartes_x      cartes_y      cartes_z           fx          fy          fz
             1    0       -0.103497      0.078791      -0.009068     0.000000    0.000000    0.000000
             2    0       0.073404      2.146934      1.993171     0.000000    0.000000    0.000000
             3    0       2.025241      0.081616      1.995234     0.000000    0.000000    0.000000
             4    0       2.098558      2.096064      -0.034637     0.000000    0.000000    0.000000
             5    0       -0.064705      0.014654      4.011775     0.000000    0.000000    0.000000
             6    0       -0.026756      2.219147      6.228458     0.000000    0.000000    0.000000
             7    0       1.941697      -0.030963      6.197820     0.000000    0.000000    0.000000
             8    0       2.236853      2.177557      4.110298     0.000000    0.000000    0.000000
             9    0       0.004596      4.103809      0.109198     0.000000    0.000000    0.000000
            10    0       -0.067241      6.182381      2.061173     0.000000    0.000000    0.000000
            11    0       2.023980      4.163298      2.093760     0.000000    0.000000    0.000000
            12    0       2.121556      6.088646      0.126809     0.000000    0.000000    0.000000
            13    0       -0.015491      4.039830      3.928659     0.000000    0.000000    0.000000
            14    0       -0.166355      5.852003      6.000602     0.000000    0.000000    0.000000
            15    0       1.999729      4.107589      6.154543     0.000000    0.000000    0.000000
            16    0       2.043272      6.196000      3.984837     0.000000    0.000000    0.000000
            17    0       4.106293      -0.079478      -0.085095     0.000000    0.000000    0.000000
            18    0       4.060263      2.122251      2.036175     0.000000    0.000000    0.000000
            19    0       6.077460      -0.029878      1.979888     0.000000    0.000000    0.000000
            20    0       6.028566      2.015428      -0.015880     0.000000    0.000000    0.000000
            21    0       3.998985      -0.022438      4.030814     0.000000    0.000000    0.000000
            22    0       4.103491      1.936086      6.125038     0.000000    0.000000    0.000000
            23    0       6.123124      0.055377      6.027653     0.000000    0.000000    0.000000
            24    0       5.860167      2.026657      4.029793     0.000000    0.000000    0.000000
            25    0       4.129915      4.100609      0.076950     0.000000    0.000000    0.000000
            26    0       4.147218      5.992707      1.944621     0.000000    0.000000    0.000000
            27    0       6.114801      4.204336      1.944379     0.000000    0.000000    0.000000
            28    0       6.190355      6.078500      -0.080834     0.000000    0.000000    0.000000
            29    0       4.085192      4.133978      4.235609     0.000000    0.000000    0.000000
            30    0       3.961314      6.086539      6.042019     0.000000    0.000000    0.000000
            31    0       6.013003      4.013237      6.138935     0.000000    0.000000    0.000000
            32    0       6.075740      6.046724      3.891810     0.000000    0.000000    0.000000
 Energy
        0
 PlusStress:  xx          yy          zz          yz          xz          xy
         0.00000     0.00000     0.00000     0.00000     0.00000     0.00000
 Feature   EFS_by	VASP
END_CFG
