BEGIN_CFG
 Size
    32
 Supercell
         8.095800      0.000000      0.000000
         0.000000      8.095800      0.000000
         0.000000      0.000000      8.095800
 AtomData:  id type       cartes_x      cartes_y      cartes_z           fx          fy          fz
             1    0       0.082713      0.049843      0.056290     0.000000    0.000000    0.000000
             2    0       -0.261967      1.822307      2.275738     0.000000    0.000000    0.000000
             3    0       1.943918      0.032301      2.069209     0.000000    0.000000    0.000000
             4    0       1.940185      1.911754      -0.032943     0.000000    0.000000    0.000000
             5    0       0.012428      -0.049678      4.025666     0.000000    0.000000    0.000000
             6    0       0.083882      1.915591      5.944905     0.000000    0.000000    0.000000
             7    0       2.178434      -0.136259      5.920468     0.000000    0.000000    0.000000
             8    0       2.199823      2.011057      4.007727     0.000000    0.000000    0.000000
             9    0       -0.017075      3.921083      -0.145978     0.000000    0.000000    0.000000
            10    0       0.100441      5.991459      2.054827     0.000000    0.000000    0.000000
            11    0       1.924409      3.893268      2.056323     0.000000    0.000000    0.000000
            12    0       2.139013      6.104004      -0.083898     0.000000    0.000000    0.000000
            13    0       -0.015287      4.009281      4.230329     0.000000    0.000000    0.000000
            14    0       0.146696      6.128031      6.119453     0.000000    0.000000    0.000000
            15    0       2.156064      4.088258      6.051470     0.000000    0.000000    0.000000
            16    0       2.120825      5.961940      3.940592     0.000000    0.000000    0.000000
            17    0       3.959844      0.015984      -0.034384     0.000000    0.000000    0.000000
            18    0       3.967157      1.988714      1.857884     0.000000    0.000000    0.000000
            19    0       5.968198      0.084166      2.155716     0.000000    0.000000    0.000000
            20    0       6.090370      2.157660      0.036795     0.000000    0.000000    0.000000
            21    0       3.937363      -0.009901      4.028579     0.000000    0.000000    0.000000
            22    0       4.125847      2.055079      6.172301     0.000000    0.000000    0.000000
            23    0       6.203901      0.047523      6.068397     0.000000    0.000000    0.000000
            24    0       5.964589      2.026082      4.059375     0.000000    0.000000    0.000000
            25    0       4.030825      4.073518      0.084322     0.000000    0.000000    0.000000
            26    0       3.955518      6.231754      2.072258     0.000000    0.000000    0.000000
            27    0       6.020323      4.123771      1.925423     0.000000    0.000000    0.000000
            28    0       5.997523      6.334750      -0.105902     0.000000    0.000000    0.000000
            29    0       4.137288      3.895648      3.987024     0.000000    0.000000    0.000000
            30    0       4.162578      6.127997      6.082652     0.000000    0.000000    0.000000
            31    0       5.899741      4.275149      6.171892     0.000000    0.000000    0.000000
            32    0       6.036533      6.128863      3.913274     0.000000    0.000000    0.000000
 Energy
        0
 PlusStress:  xx          yy          zz          yz          xz          xy
         0.00000     0.00000     0.00000     0.00000     0.00000     0.00000
 Feature   EFS_by	VASP
END_CFG
