BEGIN_CFG
 Size
    32
 Supercell
         8.095800      0.000000      0.000000
         0.000000      8.095800      0.000000
         0.000000      0.000000      8.095800
 AtomData:  id type       cartes_x      cartes_y      cartes_z           fx          fy          fz
             1    0       0.122311      -0.085908      -0.057896     0.000000    0.000000    0.000000
             2    0       0.153383      1.856581      2.005852     0.000000    0.000000    0.000000
             3    0       2.102495      -0.019409      2.006936     0.000000    0.000000    0.000000
             4    0       2.120029      1.974096      0.092924     0.000000    0.000000    0.000000
             5    0       0.130312      -0.005417      3.997030     0.000000    0.000000    0.000000
             6    0       0.092213      2.006623      6.143439     0.000000    0.000000    0.000000
             7    0       2.027242      0.081147      6.146809     0.000000    0.000000    0.000000
             8    0       2.176207      2.024822      4.047933     0.000000    0.000000    0.000000
             9    0       0.000207      3.915998      -0.076013     0.000000    0.000000    0.000000
            10    0       -0.056901      6.035842      2.060075     0.000000    0.000000    0.000000
            11    0       2.121713      4.046038      2.007086     0.000000    0.000000    0.000000
            12    0       2.017528      6.017057      -0.122549     0.000000    0.000000    0.000000
            13    0       -0.004516      3.997488      4.014451     0.000000    0.000000    0.000000
            14    0       0.015224      6.078605      6.062682     0.000000    0.000000    0.000000
            15    0       2.092220      4.076887      6.013694     0.000000    0.000000    0.000000
            16    0       2.117231      6.078988      3.989333     0.000000    0.000000    0.000000
            17    0       4.168501      -0.038556      0.091806     0.000000    0.000000    0.000000
            18    0       4.136159      1.963418      2.073984     0.000000    0.000000    0.000000
            19    0       6.070020      -0.051230      2.039511     0.000000    0.000000    0.000000
            20    0       6.111601      2.001744      0.021295     0.000000    0.000000    0.000000
            21    0       4.091892      0.039784      4.129432     0.000000    0.000000    0.000000
            22    0       4.101721      2.067432      6.092358     0.000000    0.000000    0.000000
            23    0       6.093050      -0.088202      6.111470     0.000000    0.000000    0.000000
            24    0       6.101492      1.979560      4.077120     0.000000    0.000000    0.000000
            25    0       4.054960      3.992126      0.023584     0.000000    0.000000    0.000000
            26    0       4.083997      6.000949      2.016459     0.000000    0.000000    0.000000
            27    0       6.151434      4.050375      1.951687     0.000000    0.000000    0.000000
            28    0       6.214224      6.045040      0.031327     0.000000    0.000000    0.000000
            29    0       4.038844      4.083549      4.072435     0.000000    0.000000    0.000000
            30    0       4.009148      6.114538      6.179506     0.000000    0.000000    0.000000
            31    0       6.132859      4.098890      6.035802     0.000000    0.000000    0.000000
            32    0       6.068185      6.135062      3.987037     0.000000    0.000000    0.000000
 Energy
        0
 PlusStress:  xx          yy          zz          yz          xz          xy
         0.00000     0.00000     0.00000     0.00000     0.00000     0.00000
 Feature   EFS_by	VASP
END_CFG
