BEGIN_CFG
 Size
    32
 Supercell
         8.095800      0.000000      0.000000
         0.000000      8.095800      0.000000
         0.000000      0.000000      8.095800
 AtomData:  id type       cartes_x      cartes_y      cartes_z           fx          fy          fz
             1    0       0.181957      0.015564      -0.065374     0.000000    0.000000    0.000000
             2    0       0.049920      2.058519      2.050120     0.000000    0.000000    0.000000
             3    0       2.016889      -0.036994      2.262236     0.000000    0.000000    0.000000
             4    0       2.011778      2.024604      -0.221653     0.000000    0.000000    0.000000
             5    0       -0.100282      0.010913      4.019654     0.000000    0.000000    0.000000
             6    0       0.012590      2.189064      6.171188     0.000000    0.000000    0.000000
             7    0       2.077158      0.068174      5.962124     0.000000    0.000000    0.000000
             8    0       1.980501      2.119892      4.054771     0.000000    0.000000    0.000000
             9    0       0.118167      4.146657      0.133147     0.000000    0.000000    0.000000
            10    0       -0.149001      6.184528      1.910733     0.000000    0.000000    0.000000
            11    0       2.170229      4.184587      2.084870     0.000000    0.000000    0.000000
            12    0       2.111687      6.291708      0.108961     0.000000    0.000000    0.000000
            13    0       -0.110909      3.988352      3.952396     0.000000    0.000000    0.000000
            14    0       0.370165      6.059871      6.090795     0.000000    0.000000    0.000000
            15    0       2.080458      3.881503      6.147802     0.000000    0.000000    0.000000
            16    0       2.132987      5.981053      4.025190     0.000000    0.000000    0.000000
            17    0       3.984743      0.010055      -0.045029     0.000000    0.000000    0.000000
            18    0       3.884558      1.821414      1.909521     0.000000    0.000000    0.000000
            19    0       6.154275      0.156533      1.884802     0.000000    0.000000    0.000000
            20    0       6.030756      1.997371      0.045566     0.000000    0.000000    0.000000
            21    0       4.114867      -0.123732      4.002155     0.000000    0.000000    0.000000
            22    0       4.041249      1.939647      6.084359     0.000000    0.000000    0.000000
            23    0       6.025344      -0.127799      6.076056     0.000000    0.000000    0.000000
            24    0       5.868402      2.029639      4.082727     0.000000    0.000000    0.000000
            25    0       3.974375      3.986391      0.039563     0.000000    0.000000    0.000000
            26    0       4.163734      6.228674      1.939549     0.000000    0.000000    0.000000
            27    0       5.748603      4.054734      2.033282     0.000000    0.000000    0.000000
            28    0       6.196346      5.838768      0.059897     0.000000    0.000000    0.000000
            29    0       4.019518      4.073900      4.226920     0.000000    0.000000    0.000000
            30    0       4.033060      6.025577      6.198354     0.000000    0.000000    0.000000
            31    0       5.982671      4.055495      6.116686     0.000000    0.000000    0.000000
            32    0       6.044450      5.971377      3.877285     0.000000    0.000000    0.000000
 Energy
        0
 PlusStress:  xx          yy          zz          yz          xz          xy
         0.00000     0.00000     0.00000     0.00000     0.00000     0.00000
 Feature   EFS_by	VASP
END_CFG
