BEGIN_CFG
 Size
    32
 Supercell
         8.095800      0.000000      0.000000
         0.000000      8.095800      0.000000
         0.000000      0.000000      8.095800
 AtomData:  id type       cartes_x      cartes_y      cartes_z           fx          fy          fz
             1    0       -0.103647      -0.117615      0.007986     0.000000    0.000000    0.000000
             2    0       -0.165513      2.002715      2.139864     0.000000    0.000000    0.000000
             3    0       2.074151      0.030726      2.042304     0.000000    0.000000    0.000000
             4    0       2.112049      2.077273      -0.025955     0.000000    0.000000    0.000000
             5    0       -0.034124      -0.037360      4.188532     0.000000    0.000000    0.000000
             6    0       0.038861      1.978621      6.263652     0.000000    0.000000    0.000000
             7    0       2.095757      0.002643      6.169984     0.000000    0.000000    0.000000
             8    0       2.159375      2.023956      3.938966     0.000000    0.000000    0.000000
             9    0       -0.087522      4.272969      -0.075563     0.000000    0.000000    0.000000
            10    0       0.005787      6.145892      2.034551     0.000000    0.000000    0.000000
            11    0       1.907991      4.018391      2.106293     0.000000    0.000000    0.000000
            12    0       2.118916      5.989470      -0.027250     0.000000    0.000000    0.000000
            13    0       -0.038101      3.993036      4.036492     0.000000    0.000000    0.000000
            14    0       0.168290      5.936470      5.934192     0.000000    0.000000    0.000000
            15    0       1.961773      3.924287      6.001445     0.000000    0.000000    0.000000
            16    0       2.045011      6.237880      3.915778     0.000000    0.000000    0.000000
            17    0       4.058276      -0.215037      -0.092816     0.000000    0.000000    0.000000
            18    0       4.120970      2.084599      1.969633     0.000000    0.000000    0.000000
            19    0       5.944922      0.036809      1.923518     0.000000    0.000000    0.000000
            20    0       6.028862      1.953491      0.141833     0.000000    0.000000    0.000000
            21    0       4.105249      0.020211      3.817146     0.000000    0.000000    0.000000
            22    0       4.007731      2.015512      6.167577     0.000000    0.000000    0.000000
            23    0       6.102497      -0.051771      6.106707     0.000000    0.000000    0.000000
            24    0       6.059107      2.071655      4.198470     0.000000    0.000000    0.000000
            25    0       4.059182      4.109985      0.152577     0.000000    0.000000    0.000000
            26    0       3.950087      6.074355      2.136629     0.000000    0.000000    0.000000
            27    0       6.203706      4.229045      2.047469     0.000000    0.000000    0.000000
            28    0       6.033488      6.079976      0.061324     0.000000    0.000000    0.000000
            29    0       4.041018      4.007503      3.908546     0.000000    0.000000    0.000000
            30    0       3.977233      6.035547      5.911691     0.000000    0.000000    0.000000
            31    0       6.064293      4.008336      6.099893     0.000000    0.000000    0.000000
            32    0       6.282276      6.113497      4.077096     0.000000    0.000000    0.000000
 Energy
        0
 PlusStress:  xx          yy          zz          yz          xz          xy
         0.00000     0.00000     0.00000     0.00000     0.00000     0.00000
 Feature   EFS_by	VASP
END_CFG
