BEGIN_CFG
 Size
    32
 Supercell
         8.095800      0.000000      0.000000
         0.000000      8.095800      0.000000
         0.000000      0.000000      8.095800
 AtomData:  id type       cartes_x      cartes_y      cartes_z           fx          fy          fz
             1    0       -0.025028      0.085016      -0.031489     0.000000    0.000000    0.000000
             2    0       0.046463      2.033491      1.967298     0.000000    0.000000    0.000000
             3    0       2.064539      -0.037313      2.122451     0.000000    0.000000    0.000000
             4    0       2.000839      2.019255      0.054660     0.000000    0.000000    0.000000
             5    0       -0.083543      -0.175615      3.979616     0.000000    0.000000    0.000000
             6    0       -0.041904      2.021779      6.160462     0.000000    0.000000    0.000000
             7    0       1.948709      -0.058310      5.962547     0.000000    0.000000    0.000000
             8    0       1.790149      1.934660      4.125681     0.000000    0.000000    0.000000
             9    0       -0.077393      4.105589      -0.077005     0.000000    0.000000    0.000000
            10    0       0.068981      6.018847      2.030235     0.000000    0.000000    0.000000
            11    0       2.098014      4.090890      1.946820     0.000000    0.000000    0.000000
            12    0       1.967239      6.079829      -0.014698     0.000000    0.000000    0.000000
            13    0       -0.035412      4.115759      4.224640     0.000000    0.000000    0.000000
            14    0       0.068345      6.078043      6.077566     0.000000    0.000000    0.000000
            15    0       2.170798      4.067860      6.230432     0.000000    0.000000    0.000000
            16    0       2.181840      6.064823      3.985956     0.000000    0.000000    0.000000
            17    0       3.967488      -0.038937      0.085730     0.000000    0.000000    0.000000
            18    0       4.042666      2.078413      2.085039     0.000000    0.000000    0.000000
            19    0       5.978386      0.002942      2.051405     0.000000    0.000000    0.000000
            20    0       6.010363      1.933108      0.058242     0.000000    0.000000    0.000000
            21    0       4.093589      0.186088      4.081407     0.000000    0.000000    0.000000
            22    0       4.009709      1.923710      5.999591     0.000000    0.000000    0.000000
            23    0       6.135882      -0.012103      6.027797     0.000000    0.000000    0.000000
            24    0       6.053277      2.144401      3.871454     0.000000    0.000000    0.000000
            25    0       4.020493      3.948374      -0.022575     0.000000    0.000000    0.000000
            26    0       4.162799      6.043371      2.007326     0.000000    0.000000    0.000000
            27    0       6.117983      4.168872      1.892449     0.000000    0.000000    0.000000
            28    0       6.155697      6.111884      -0.120180     0.000000    0.000000    0.000000
            29    0       4.082920      4.010332      4.038417     0.000000    0.000000    0.000000
            30    0       4.070134      6.057998      6.111518     0.000000    0.000000    0.000000
            31    0       5.957985      4.081793      6.197345     0.000000    0.000000    0.000000
            32    0       6.077642      6.036885      4.066766     0.000000    0.000000    0.000000
 Energy
        0
 PlusStress:  xx          yy          zz          yz          xz          xy
         0.00000     0.00000     0.00000     0.00000     0.00000     0.00000
 Feature   EFS_by	VASP
END_CFG
