BEGIN_CFG
 Size
    8
 Supercell
         0.000000      5.431000      5.431000
         5.431000      0.000000      5.431000
         5.431000      5.431000      0.000000
 AtomData:  id type       cartes_x      cartes_y      cartes_z           fx          fy          fz
             1    0       1123.480855      5735.734186      18442.351303     0.000000    0.000000    0.000000
             2    0       22103.359041      10855.478950      -29300.211351     0.000000    0.000000    0.000000
             3    0       -162692.445204      5159.958512      72028.692060     0.000000    0.000000    0.000000
             4    0       2066.627572      10342.125484      518.458424     0.000000    0.000000    0.000000
             5    0       -15650912.719430      -47158600.292641      55790428.416356     0.000000    0.000000    0.000000
             6    0       -58473.519164      -46178.268602      6174.778701     0.000000    0.000000    0.000000
             7    0       -161922.293141      -59253.349396      -16337.891058     0.000000    0.000000    0.000000
             8    0       16008729.195065      47231960.341865      -55841932.885621     0.000000    0.000000    0.000000
 Energy
        0
 PlusStress:  xx          yy          zz          yz          xz          xy
         0.00000     0.00000     0.00000     0.00000     0.00000     0.00000
 Feature   EFS_by	VASP
END_CFG
