BEGIN_CFG
 Size
    32
 Supercell
         8.095800      0.000000      0.000000
         0.000000      8.095800      0.000000
         0.000000      0.000000      8.095800
 AtomData:  id type       cartes_x      cartes_y      cartes_z           fx          fy          fz
             1    0       -0.018908      0.015744      0.020094     0.000000    0.000000    0.000000
             2    0       0.008646      2.018146      2.008798     0.000000    0.000000    0.000000
             3    0       2.072505      -0.010297      1.994549     0.000000    0.000000    0.000000
             4    0       1.986354      1.987937      0.014818     0.000000    0.000000    0.000000
             5    0       -0.018181      -0.046468      4.021854     0.000000    0.000000    0.000000
             6    0       -0.019596      1.997744      6.082194     0.000000    0.000000    0.000000
             7    0       1.995604      0.003521      6.101253     0.000000    0.000000    0.000000
             8    0       1.982314      2.027495      4.018467     0.000000    0.000000    0.000000
             9    0       -0.022890      4.061926      0.019420     0.000000    0.000000    0.000000
            10    0       -0.034584      6.071611      1.966090     0.000000    0.000000    0.000000
            11    0       2.065359      4.066658      1.984572     0.000000    0.000000    0.000000
            12    0       2.023441      6.115852      0.002031     0.000000    0.000000    0.000000
            13    0       0.010423      4.078977      4.056274     0.000000    0.000000    0.000000
            14    0       0.019545      6.042383      6.052330     0.000000    0.000000    0.000000
            15    0       2.001218      4.017405      6.080192     0.000000    0.000000    0.000000
            16    0       2.012642      6.115113      4.046125     0.000000    0.000000    0.000000
            17    0       4.052346      0.044245      0.014904     0.000000    0.000000    0.000000
            18    0       4.013610      2.042205      1.994436     0.000000    0.000000    0.000000
            19    0       6.056547      -0.006598      2.045128     0.000000    0.000000    0.000000
            20    0       6.075153      2.037027      -0.006590     0.000000    0.000000    0.000000
            21    0       4.085849      0.020187      4.087196     0.000000    0.000000    0.000000
            22    0       4.013116      2.033781      6.090756     0.000000    0.000000    0.000000
            23    0       6.057207      -0.008963      6.060911     0.000000    0.000000    0.000000
            24    0       6.104744      1.988148      3.986108     0.000000    0.000000    0.000000
            25    0       4.093522      4.060720      0.002571     0.000000    0.000000    0.000000
            26    0       4.057999      6.048564      1.983993     0.000000    0.000000    0.000000
            27    0       6.086495      4.047780      2.024179     0.000000    0.000000    0.000000
            28    0       6.039614      6.091802      0.012641     0.000000    0.000000    0.000000
            29    0       4.039677      4.080317      4.031355     0.000000    0.000000    0.000000
            30    0       4.067980      6.091298      6.072193     0.000000    0.000000    0.000000
            31    0       6.097946      4.062664      6.045978     0.000000    0.000000    0.000000
            32    0       6.091918      6.083046      4.026738     0.000000    0.000000    0.000000
 Energy
        0
 PlusStress:  xx          yy          zz          yz          xz          xy
         0.00000     0.00000     0.00000     0.00000     0.00000     0.00000
 Feature   EFS_by	VASP
END_CFG
