BEGIN_CFG
 Size
    8
 Supercell
         0.000000      5.431000      5.431000
         5.431000      0.000000      5.431000
         5.431000      5.431000      0.000000
 AtomData:  id type       cartes_x      cartes_y      cartes_z           fx          fy          fz
             1    0       0.444082      -0.514850      -0.186850     0.000000    0.000000    0.000000
             2    0       3.163996      2.250601      -0.091177     0.000000    0.000000    0.000000
             3    0       3.284456      -0.411116      2.649520     0.000000    0.000000    0.000000
             4    0       5.964771      2.254059      2.648527     0.000000    0.000000    0.000000
             5    0       0.514111      2.273637      2.558079     0.000000    0.000000    0.000000
             6    0       3.219713      4.981463      2.585506     0.000000    0.000000    0.000000
             7    0       3.192536      2.376349      5.303149     0.000000    0.000000    0.000000
             8    0       5.959635      5.025069      5.319433     0.000000    0.000000    0.000000
 Energy
        0
 PlusStress:  xx          yy          zz          yz          xz          xy
         0.00000     0.00000     0.00000     0.00000     0.00000     0.00000
 Feature   EFS_by	VASP
END_CFG
