BEGIN_CFG
 Size
    32
 Supercell
         8.095800      0.000000      0.000000
         0.000000      8.095800      0.000000
         0.000000      0.000000      8.095800
 AtomData:  id type       cartes_x      cartes_y      cartes_z           fx          fy          fz
             1    0       -0.081852      0.055328      -0.062804     0.000000    0.000000    0.000000
             2    0       0.036161      1.984920      2.171494     0.000000    0.000000    0.000000
             3    0       1.974138      0.086791      1.978315     0.000000    0.000000    0.000000
             4    0       2.021165      2.153068      0.083238     0.000000    0.000000    0.000000
             5    0       -0.030644      -0.044625      3.991844     0.000000    0.000000    0.000000
             6    0       -0.141184      1.865703      6.103525     0.000000    0.000000    0.000000
             7    0       2.130819      -0.013751      6.052550     0.000000    0.000000    0.000000
             8    0       1.987671      2.014566      4.209936     0.000000    0.000000    0.000000
             9    0       -0.123553      3.961681      0.159604     0.000000    0.000000    0.000000
            10    0       -0.101176      5.950649      1.970879     0.000000    0.000000    0.000000
            11    0       1.981000      4.198680      2.052319     0.000000    0.000000    0.000000
            12    0       1.941543      6.175512      0.095307     0.000000    0.000000    0.000000
            13    0       0.088389      4.270697      4.158204     0.000000    0.000000    0.000000
            14    0       0.004719      5.983969      6.224381     0.000000    0.000000    0.000000
            15    0       1.911135      4.014279      6.194523     0.000000    0.000000    0.000000
            16    0       2.104537      6.165897      3.938384     0.000000    0.000000    0.000000
            17    0       3.931883      -0.163348      0.047513     0.000000    0.000000    0.000000
            18    0       4.046739      2.024922      2.001203     0.000000    0.000000    0.000000
            19    0       6.218650      -0.023617      2.090389     0.000000    0.000000    0.000000
            20    0       6.133198      1.964264      0.042149     0.000000    0.000000    0.000000
            21    0       4.195671      -0.088431      4.076195     0.000000    0.000000    0.000000
            22    0       4.081423      2.024097      6.154851     0.000000    0.000000    0.000000
            23    0       6.009830      0.029892      6.085846     0.000000    0.000000    0.000000
            24    0       6.031103      2.001166      4.130289     0.000000    0.000000    0.000000
            25    0       4.024895      3.994983      -0.074986     0.000000    0.000000    0.000000
            26    0       4.117219      6.030850      2.054104     0.000000    0.000000    0.000000
            27    0       5.988578      4.128988      2.186312     0.000000    0.000000    0.000000
            28    0       6.026109      6.106399      0.077363     0.000000    0.000000    0.000000
            29    0       3.949232      3.860118      3.984985     0.000000    0.000000    0.000000
            30    0       4.009731      5.983398      6.031478     0.000000    0.000000    0.000000
            31    0       5.959396      4.075991      6.079483     0.000000    0.000000    0.000000
            32    0       6.244559      6.086559      4.138346     0.000000    0.000000    0.000000
 Energy
        0
 PlusStress:  xx          yy          zz          yz          xz          xy
         0.00000     0.00000     0.00000     0.00000     0.00000     0.00000
 Feature   EFS_by	VASP
END_CFG
