BEGIN_CFG
 Size
    32
 Supercell
         8.095800      0.000000      0.000000
         0.000000      8.095800      0.000000
         0.000000      0.000000      8.095800
 AtomData:  id type       cartes_x      cartes_y      cartes_z           fx          fy          fz
             1    0       0.001602      0.028362      -0.006211     0.000000    0.000000    0.000000
             2    0       -0.062893      1.942919      1.886305     0.000000    0.000000    0.000000
             3    0       1.941981      0.057692      2.110022     0.000000    0.000000    0.000000
             4    0       2.057711      1.870972      -0.009579     0.000000    0.000000    0.000000
             5    0       -0.004807      -0.016042      3.984362     0.000000    0.000000    0.000000
             6    0       -0.088207      1.912232      6.174111     0.000000    0.000000    0.000000
             7    0       1.976329      -0.087288      5.903549     0.000000    0.000000    0.000000
             8    0       2.043398      2.119989      3.978062     0.000000    0.000000    0.000000
             9    0       0.185406      3.963806      0.024731     0.000000    0.000000    0.000000
            10    0       0.075984      5.969945      1.984402     0.000000    0.000000    0.000000
            11    0       2.091495      4.111468      2.015663     0.000000    0.000000    0.000000
            12    0       2.021482      6.222207      -0.173951     0.000000    0.000000    0.000000
            13    0       -0.000116      3.861709      4.214052     0.000000    0.000000    0.000000
            14    0       -0.069061      6.060097      6.009659     0.000000    0.000000    0.000000
            15    0       2.030064      4.214370      6.079021     0.000000    0.000000    0.000000
            16    0       2.043222      6.025376      3.949995     0.000000    0.000000    0.000000
            17    0       4.056857      -0.004780      -0.022250     0.000000    0.000000    0.000000
            18    0       4.237094      2.058333      2.195502     0.000000    0.000000    0.000000
            19    0       6.039258      -0.059445      2.017183     0.000000    0.000000    0.000000
            20    0       6.105954      2.106446      0.029572     0.000000    0.000000    0.000000
            21    0       4.045275      -0.029656      4.093938     0.000000    0.000000    0.000000
            22    0       3.792364      2.197204      5.964213     0.000000    0.000000    0.000000
            23    0       6.174797      -0.028510      6.076371     0.000000    0.000000    0.000000
            24    0       6.055814      1.967654      4.113971     0.000000    0.000000    0.000000
            25    0       4.016945      3.995806      0.129702     0.000000    0.000000    0.000000
            26    0       3.963064      6.045910      1.945497     0.000000    0.000000    0.000000
            27    0       6.172155      4.006852      2.154973     0.000000    0.000000    0.000000
            28    0       6.126000      5.934327      0.168128     0.000000    0.000000    0.000000
            29    0       4.031378      4.193063      4.100181     0.000000    0.000000    0.000000
            30    0       4.107325      6.052478      6.127384     0.000000    0.000000    0.000000
            31    0       6.018371      4.174877      6.186619     0.000000    0.000000    0.000000
            32    0       6.054014      6.202596      3.896476     0.000000    0.000000    0.000000
 Energy
        0
 PlusStress:  xx          yy          zz          yz          xz          xy
         0.00000     0.00000     0.00000     0.00000     0.00000     0.00000
 Feature   EFS_by	VASP
END_CFG
