BEGIN_CFG
 Size
    32
 Supercell
         8.095800      0.000000      0.000000
         0.000000      8.095800      0.000000
         0.000000      0.000000      8.095800
 AtomData:  id type       cartes_x      cartes_y      cartes_z           fx          fy          fz
             1    0       -0.021294      0.079073      0.017729     0.000000    0.000000    0.000000
             2    0       -0.112156      1.927001      2.065173     0.000000    0.000000    0.000000
             3    0       2.009716      0.071077      2.127079     0.000000    0.000000    0.000000
             4    0       1.994512      1.964522      -0.040573     0.000000    0.000000    0.000000
             5    0       -0.166840      -0.182677      4.066103     0.000000    0.000000    0.000000
             6    0       -0.044480      2.096247      6.086577     0.000000    0.000000    0.000000
             7    0       1.826768      0.063662      6.098478     0.000000    0.000000    0.000000
             8    0       2.012690      2.089832      4.048162     0.000000    0.000000    0.000000
             9    0       -0.067797      4.008032      -0.038733     0.000000    0.000000    0.000000
            10    0       -0.015032      6.138808      2.141727     0.000000    0.000000    0.000000
            11    0       2.010817      4.019661      1.920216     0.000000    0.000000    0.000000
            12    0       2.017012      6.083576      -0.051152     0.000000    0.000000    0.000000
            13    0       0.081447      4.248188      4.019036     0.000000    0.000000    0.000000
            14    0       0.008180      6.026234      6.136321     0.000000    0.000000    0.000000
            15    0       2.063477      4.032702      5.983298     0.000000    0.000000    0.000000
            16    0       2.166931      5.988513      4.114389     0.000000    0.000000    0.000000
            17    0       3.996687      0.051491      0.058183     0.000000    0.000000    0.000000
            18    0       4.141913      2.019867      2.095048     0.000000    0.000000    0.000000
            19    0       6.073819      -0.142998      2.013452     0.000000    0.000000    0.000000
            20    0       6.150318      2.103011      -0.007539     0.000000    0.000000    0.000000
            21    0       4.088093      0.069271      4.139991     0.000000    0.000000    0.000000
            22    0       4.046401      2.043203      6.081196     0.000000    0.000000    0.000000
            23    0       6.105653      -0.119164      6.204016     0.000000    0.000000    0.000000
            24    0       6.181501      2.089137      3.980419     0.000000    0.000000    0.000000
            25    0       3.946344      4.136000      -0.031264     0.000000    0.000000    0.000000
            26    0       4.089579      6.092872      1.857543     0.000000    0.000000    0.000000
            27    0       6.194953      4.065263      2.021866     0.000000    0.000000    0.000000
            28    0       6.009828      6.007366      -0.067386     0.000000    0.000000    0.000000
            29    0       4.169302      3.947591      4.048368     0.000000    0.000000    0.000000
            30    0       4.067958      6.108335      6.160886     0.000000    0.000000    0.000000
            31    0       6.188828      4.005712      5.962746     0.000000    0.000000    0.000000
            32    0       5.957949      6.064508      3.945863     0.000000    0.000000    0.000000
 Energy
        0
 PlusStress:  xx          yy          zz          yz          xz          xy
         0.00000     0.00000     0.00000     0.00000     0.00000     0.00000
 Feature   EFS_by	VASP
END_CFG
