BEGIN_CFG
 Size
    8
 Supercell
         0.000000      5.431000      5.431000
         5.431000      0.000000      5.431000
         5.431000      5.431000      0.000000
 AtomData:  id type       cartes_x      cartes_y      cartes_z           fx          fy          fz
             1    0       -0.611399      0.640328      0.883358     0.000000    0.000000    0.000000
             2    0       4.021484      3.267503      -0.562686     0.000000    0.000000    0.000000
             3    0       1.302375      -1.173807      3.052330     0.000000    0.000000    0.000000
             4    0       5.779413      3.091112      1.188380     0.000000    0.000000    0.000000
             5    0       0.119234      1.736235      3.839733     0.000000    0.000000    0.000000
             6    0       4.271170      4.372973      2.606854     0.000000    0.000000    0.000000
             7    0       1.895293      4.238954      5.093087     0.000000    0.000000    0.000000
             8    0       4.950838      5.538610      5.584630     0.000000    0.000000    0.000000
 Energy
        0
 PlusStress:  xx          yy          zz          yz          xz          xy
         0.00000     0.00000     0.00000     0.00000     0.00000     0.00000
 Feature   EFS_by	VASP
END_CFG
