BEGIN_CFG
 Size
    32
 Supercell
         8.095800      0.000000      0.000000
         0.000000      8.095800      0.000000
         0.000000      0.000000      8.095800
 AtomData:  id type       cartes_x      cartes_y      cartes_z           fx          fy          fz
             1    0       0.234286      -0.098698      0.392975     0.000000    0.000000    0.000000
             2    0       0.272747      1.919823      2.349771     0.000000    0.000000    0.000000
             3    0       2.372563      0.005527      2.370953     0.000000    0.000000    0.000000
             4    0       2.315827      1.895628      0.410847     0.000000    0.000000    0.000000
             5    0       0.433953      0.011385      4.313630     0.000000    0.000000    0.000000
             6    0       0.280128      1.954304      6.303168     0.000000    0.000000    0.000000
             7    0       2.284482      -0.000213      6.448578     0.000000    0.000000    0.000000
             8    0       2.355851      2.089346      4.352447     0.000000    0.000000    0.000000
             9    0       0.358501      3.905861      0.192439     0.000000    0.000000    0.000000
            10    0       0.338561      5.920691      2.195167     0.000000    0.000000    0.000000
            11    0       2.296729      4.040291      2.359277     0.000000    0.000000    0.000000
            12    0       2.394918      6.109624      0.374980     0.000000    0.000000    0.000000
            13    0       0.290522      3.961856      4.332144     0.000000    0.000000    0.000000
            14    0       0.365684      6.118974      6.465866     0.000000    0.000000    0.000000
            15    0       2.308571      4.110856      6.295074     0.000000    0.000000    0.000000
            16    0       2.262324      5.999916      4.308493     0.000000    0.000000    0.000000
            17    0       4.464789      -0.012006      0.323564     0.000000    0.000000    0.000000
            18    0       4.427437      1.927055      2.355700     0.000000    0.000000    0.000000
            19    0       6.484682      -0.065876      2.385813     0.000000    0.000000    0.000000
            20    0       6.391452      2.003035      0.244887     0.000000    0.000000    0.000000
            21    0       4.261408      -0.055727      4.364305     0.000000    0.000000    0.000000
            22    0       4.294293      2.176125      6.319294     0.000000    0.000000    0.000000
            23    0       6.369743      0.047753      6.353660     0.000000    0.000000    0.000000
            24    0       6.435525      1.975023      4.435543     0.000000    0.000000    0.000000
            25    0       4.279614      3.895695      0.417945     0.000000    0.000000    0.000000
            26    0       4.444442      5.978765      2.263326     0.000000    0.000000    0.000000
            27    0       6.462964      3.871418      2.243274     0.000000    0.000000    0.000000
            28    0       6.416802      5.945094      0.287624     0.000000    0.000000    0.000000
            29    0       4.495794      4.024530      4.247235     0.000000    0.000000    0.000000
            30    0       4.383876      6.046990      6.383355     0.000000    0.000000    0.000000
            31    0       6.492607      4.075218      6.321884     0.000000    0.000000    0.000000
            32    0       6.284738      6.120031      4.290865     0.000000    0.000000    0.000000
 Energy
        0
 PlusStress:  xx          yy          zz          yz          xz          xy
         0.00000     0.00000     0.00000     0.00000     0.00000     0.00000
 Feature   EFS_by	VASP
END_CFG
