BEGIN_CFG
 Size
    32
 Supercell
         8.095800      0.000000      0.000000
         0.000000      8.095800      0.000000
         0.000000      0.000000      8.095800
 AtomData:  id type       cartes_x      cartes_y      cartes_z           fx          fy          fz
             1    0       -6.069633      6.075559      2.217013     0.000000    0.000000    0.000000
             2    0       -5.990099      8.051181      4.236865     0.000000    0.000000    0.000000
             3    0       -3.988646      6.013204      4.287284     0.000000    0.000000    0.000000
             4    0       -4.053956      8.005740      2.172065     0.000000    0.000000    0.000000
             5    0       -5.973734      6.077949      6.431116     0.000000    0.000000    0.000000
             6    0       -6.068198      8.006724      8.409574     0.000000    0.000000    0.000000
             7    0       -3.986299      5.903533      8.167232     0.000000    0.000000    0.000000
             8    0       -4.033838      8.027146      6.356925     0.000000    0.000000    0.000000
             9    0       -5.855645      10.115594      2.315395     0.000000    0.000000    0.000000
            10    0       -6.003482      12.178752      4.200228     0.000000    0.000000    0.000000
            11    0       -4.084208      10.193705      4.366058     0.000000    0.000000    0.000000
            12    0       -3.966311      12.229914      2.270792     0.000000    0.000000    0.000000
            13    0       -6.065993      10.025137      6.297369     0.000000    0.000000    0.000000
            14    0       -6.019117      12.015828      8.280506     0.000000    0.000000    0.000000
            15    0       -3.962670      10.102487      8.287296     0.000000    0.000000    0.000000
            16    0       -3.995402      12.000128      6.391010     0.000000    0.000000    0.000000
            17    0       -1.880888      6.087921      2.288705     0.000000    0.000000    0.000000
            18    0       -2.154375      8.039122      4.263593     0.000000    0.000000    0.000000
            19    0       0.223739      6.062626      4.215624     0.000000    0.000000    0.000000
            20    0       -0.044100      8.133222      2.352806     0.000000    0.000000    0.000000
            21    0       -1.953488      5.971286      6.356910     0.000000    0.000000    0.000000
            22    0       -2.006978      7.930384      8.292616     0.000000    0.000000    0.000000
            23    0       0.220920      6.111571      8.237593     0.000000    0.000000    0.000000
            24    0       0.049512      7.953152      6.285951     0.000000    0.000000    0.000000
            25    0       -1.936188      10.141682      2.289420     0.000000    0.000000    0.000000
            26    0       -2.070752      12.071093      4.175939     0.000000    0.000000    0.000000
            27    0       0.137422      10.159246      4.290649     0.000000    0.000000    0.000000
            28    0       0.121143      12.124230      2.262507     0.000000    0.000000    0.000000
            29    0       -2.047109      10.061364      6.210179     0.000000    0.000000    0.000000
            30    0       -1.964411      11.959051      8.371043     0.000000    0.000000    0.000000
            31    0       0.038363      10.009676      8.230281     0.000000    0.000000    0.000000
            32    0       0.168821      12.093901      6.278759     0.000000    0.000000    0.000000
 Energy
        0
 PlusStress:  xx          yy          zz          yz          xz          xy
         0.00000     0.00000     0.00000     0.00000     0.00000     0.00000
 Feature   EFS_by	VASP
END_CFG
