BEGIN_CFG
 Size
    32
 Supercell
         8.095800      0.000000      0.000000
         0.000000      8.095800      0.000000
         0.000000      0.000000      8.095800
 AtomData:  id type       cartes_x      cartes_y      cartes_z           fx          fy          fz
             1    0       -0.037091      -0.016066      -0.010708     0.000000    0.000000    0.000000
             2    0       -0.079814      1.944290      1.938389     0.000000    0.000000    0.000000
             3    0       2.022422      -0.160551      2.034595     0.000000    0.000000    0.000000
             4    0       2.185971      1.917702      0.055109     0.000000    0.000000    0.000000
             5    0       -0.045890      0.024278      4.118820     0.000000    0.000000    0.000000
             6    0       0.135922      1.949812      6.087391     0.000000    0.000000    0.000000
             7    0       2.109393      0.019369      6.029948     0.000000    0.000000    0.000000
             8    0       1.974389      2.040661      3.944892     0.000000    0.000000    0.000000
             9    0       -0.023610      3.915017      0.129492     0.000000    0.000000    0.000000
            10    0       -0.208729      6.070865      2.011304     0.000000    0.000000    0.000000
            11    0       1.848597      4.157047      1.902721     0.000000    0.000000    0.000000
            12    0       2.087638      5.982760      -0.018299     0.000000    0.000000    0.000000
            13    0       0.041736      4.096755      4.134699     0.000000    0.000000    0.000000
            14    0       0.121036      6.186725      6.090072     0.000000    0.000000    0.000000
            15    0       1.990976      4.144484      6.179834     0.000000    0.000000    0.000000
            16    0       1.967175      6.141035      4.045700     0.000000    0.000000    0.000000
            17    0       4.180534      -0.101547      -0.126666     0.000000    0.000000    0.000000
            18    0       4.012140      2.167706      2.115202     0.000000    0.000000    0.000000
            19    0       6.150848      0.072317      2.089128     0.000000    0.000000    0.000000
            20    0       6.048444      2.056051      -0.006094     0.000000    0.000000    0.000000
            21    0       4.140171      0.086048      3.982378     0.000000    0.000000    0.000000
            22    0       4.050032      2.013169      5.954526     0.000000    0.000000    0.000000
            23    0       6.078559      0.099830      5.967142     0.000000    0.000000    0.000000
            24    0       6.072377      2.266624      3.998326     0.000000    0.000000    0.000000
            25    0       4.117446      4.038450      -0.110887     0.000000    0.000000    0.000000
            26    0       4.014070      6.076663      1.990243     0.000000    0.000000    0.000000
            27    0       6.002308      3.974202      2.041078     0.000000    0.000000    0.000000
            28    0       6.050067      5.848384      -0.011451     0.000000    0.000000    0.000000
            29    0       4.005194      4.060773      4.089643     0.000000    0.000000    0.000000
            30    0       4.145439      6.068919      6.167749     0.000000    0.000000    0.000000
            31    0       6.147690      4.093411      5.988245     0.000000    0.000000    0.000000
            32    0       5.937353      6.073257      4.234096     0.000000    0.000000    0.000000
 Energy
        0
 PlusStress:  xx          yy          zz          yz          xz          xy
         0.00000     0.00000     0.00000     0.00000     0.00000     0.00000
 Feature   EFS_by	VASP
END_CFG
