BEGIN_CFG
 Size
    8
 Supercell
         0.000000      5.431000      5.431000
         5.431000      0.000000      5.431000
         5.431000      5.431000      0.000000
 AtomData:  id type       cartes_x      cartes_y      cartes_z           fx          fy          fz
             1    0       1.981878      3.879545      0.410922     0.000000    0.000000    0.000000
             2    0       -0.334433      2.364812      1.021220     0.000000    0.000000    0.000000
             3    0       2.398870      -0.461134      -1.867949     0.000000    0.000000    0.000000
             4    0       6.729561      1.558585      4.139001     0.000000    0.000000    0.000000
             5    0       -1.206161      0.022816      -0.524704     0.000000    0.000000    0.000000
             6    0       2.729221      6.408883      1.754336     0.000000    0.000000    0.000000
             7    0       3.425425      3.116179      8.733543     0.000000    0.000000    0.000000
             8    0       5.789266      4.717239      8.029942     0.000000    0.000000    0.000000
 Energy
        0
 PlusStress:  xx          yy          zz          yz          xz          xy
         0.00000     0.00000     0.00000     0.00000     0.00000     0.00000
 Feature   EFS_by	VASP
END_CFG
