BEGIN_CFG
 Size
    32
 Supercell
         8.095800      0.000000      0.000000
         0.000000      8.095800      0.000000
         0.000000      0.000000      8.095800
 AtomData:  id type       cartes_x      cartes_y      cartes_z           fx          fy          fz
             1    0       -0.095944      0.060913      0.244560     0.000000    0.000000    0.000000
             2    0       0.036308      2.093029      2.142789     0.000000    0.000000    0.000000
             3    0       2.144474      -0.129707      2.055353     0.000000    0.000000    0.000000
             4    0       2.056222      2.124146      -0.074553     0.000000    0.000000    0.000000
             5    0       -0.124577      -0.005533      4.080730     0.000000    0.000000    0.000000
             6    0       0.072074      2.153779      6.161400     0.000000    0.000000    0.000000
             7    0       1.944332      0.037275      6.067544     0.000000    0.000000    0.000000
             8    0       1.932534      2.081156      4.037515     0.000000    0.000000    0.000000
             9    0       0.015004      3.944245      0.090487     0.000000    0.000000    0.000000
            10    0       -0.029780      6.077898      2.021797     0.000000    0.000000    0.000000
            11    0       2.164926      3.957206      1.849386     0.000000    0.000000    0.000000
            12    0       1.980221      6.031701      -0.051870     0.000000    0.000000    0.000000
            13    0       0.061512      4.072954      3.995861     0.000000    0.000000    0.000000
            14    0       -0.119057      6.156251      5.987772     0.000000    0.000000    0.000000
            15    0       2.056586      3.926127      6.167797     0.000000    0.000000    0.000000
            16    0       2.224723      6.234297      4.017706     0.000000    0.000000    0.000000
            17    0       4.007930      -0.084496      -0.255004     0.000000    0.000000    0.000000
            18    0       4.040296      2.048884      2.057261     0.000000    0.000000    0.000000
            19    0       5.801923      0.099827      1.949655     0.000000    0.000000    0.000000
            20    0       5.959450      2.053461      0.081309     0.000000    0.000000    0.000000
            21    0       4.143837      -0.097064      3.987913     0.000000    0.000000    0.000000
            22    0       3.978453      1.900066      6.073804     0.000000    0.000000    0.000000
            23    0       6.052408      -0.088151      6.266296     0.000000    0.000000    0.000000
            24    0       6.009179      2.056010      4.077381     0.000000    0.000000    0.000000
            25    0       4.178302      3.967335      -0.136613     0.000000    0.000000    0.000000
            26    0       4.194510      6.009564      1.971626     0.000000    0.000000    0.000000
            27    0       6.030572      4.047271      2.060033     0.000000    0.000000    0.000000
            28    0       6.025025      6.095281      0.106010     0.000000    0.000000    0.000000
            29    0       4.101939      4.052331      4.042121     0.000000    0.000000    0.000000
            30    0       4.177517      6.022593      6.068145     0.000000    0.000000    0.000000
            31    0       6.107925      4.073938      6.005226     0.000000    0.000000    0.000000
            32    0       6.094153      6.094941      4.016014     0.000000    0.000000    0.000000
 Energy
        0
 PlusStress:  xx          yy          zz          yz          xz          xy
         0.00000     0.00000     0.00000     0.00000     0.00000     0.00000
 Feature   EFS_by	VASP
END_CFG
