BEGIN_CFG
 Size
    8
 Supercell
         0.000000      5.431000      5.431000
         5.431000      0.000000      5.431000
         5.431000      5.431000      0.000000
 AtomData:  id type       cartes_x      cartes_y      cartes_z           fx          fy          fz
             1    0       0.444082     -0.514850     -0.186850     0.366307    0.586748    1.215776
             2    0       3.163996      2.250601     -0.091177     0.599700   -0.299676   -0.201051
             3    0       3.284456     -0.411116      2.649520    -1.016073   -0.201577   -0.558209
             4    0       5.964771      2.254059      2.648527    -0.131910    0.679132   -0.492932
             5    0       0.514111      2.273637      2.558079    -0.432853   -0.579361    0.026651
             6    0       3.219713      4.981463      2.585506     0.392414    0.357610   -0.150652
             7    0       3.192536      2.376349      5.303149     0.374786   -0.721156    0.386184
             8    0       5.959635      5.025069      5.319433    -0.152370    0.178280   -0.225767
 Energy
         18.710711672694
 PlusStress:  xx          yy          zz          yz          xz          xy
        50.67423    48.28068    50.42387    -0.27689     1.93987    -0.47632
 Feature   EFS_by	VASP
END_CFG

