BEGIN_CFG
 Size
    32
 Supercell
         8.095800      0.000000      0.000000
         0.000000      8.095800      0.000000
         0.000000      0.000000      8.095800
 AtomData:  id type       cartes_x      cartes_y      cartes_z           fx          fy          fz
             1    0       0.122311     -0.085908     -0.057896    -0.353009    0.174154    0.372538
             2    0       0.153383      1.856581      2.005852    -0.411419    0.469656    0.025374
             3    0       2.102495     -0.019409      2.006936     0.155840   -0.338453    0.012689
             4    0       2.120029      1.974096      0.092924     0.053371    0.136717   -0.267078
             5    0       0.130312     -0.005417      3.997030    -0.190734   -0.050188    0.306290
             6    0       0.092213      2.006623      6.143439    -0.176060   -0.053268   -0.374247
             7    0       2.027242      0.081147      6.146809     0.364761   -0.197233   -0.320497
             8    0       2.176207      2.024822      4.047933    -0.372290    0.021939    0.026715
             9    0       0.000207      3.915998     -0.076013     0.320386    0.341485    0.309421
            10    0      -0.056901      6.035842      2.060075     0.563769    0.036387   -0.122474
            11    0       2.121713      4.046038      2.007086    -0.353241   -0.067411   -0.000642
            12    0       2.017528      6.017057     -0.122549    -0.011457   -0.020177    0.577125
            13    0      -0.004516      3.997488      4.014451     0.179064    0.000153    0.011958
            14    0       0.015224      6.078605      6.062682     0.109173   -0.120429   -0.332408
            15    0       2.092220      4.076887      6.013694    -0.228134   -0.185129    0.094986
            16    0       2.117231      6.078988      3.989333    -0.223905    0.072277    0.191944
            17    0       4.168501     -0.038556      0.091806    -0.243991    0.014935   -0.247964
            18    0       4.136159      1.963418      2.073984     0.021376    0.226528   -0.049986
            19    0       6.070020     -0.051230      2.039511     0.256879    0.197458   -0.003875
            20    0       6.111601      2.001744      0.021295     0.036557   -0.152544   -0.058748
            21    0       4.091892      0.039784      4.129432    -0.078458   -0.251613   -0.068484
            22    0       4.101721      2.067432      6.092358     0.061338   -0.117492    0.131093
            23    0       6.093050     -0.088202      6.111470     0.096381    0.276693   -0.054405
            24    0       6.101492      1.979560      4.077120     0.189590    0.086753   -0.004849
            25    0       4.054960      3.992126      0.023584     0.191739    0.130872   -0.099944
            26    0       4.083997      6.000949      2.016459     0.020527    0.162784   -0.123589
            27    0       6.151434      4.050375      1.951687    -0.174042   -0.304698    0.260178
            28    0       6.214224      6.045040      0.031327    -0.344968   -0.038793   -0.166217
            29    0       4.038844      4.083549      4.072435     0.420032   -0.040993   -0.080149
            30    0       4.009148      6.114538      6.179506     0.339586   -0.074773   -0.302671
            31    0       6.132859      4.098890      6.035802    -0.214161   -0.079259    0.021564
            32    0       6.068185      6.135062      3.987037    -0.004499   -0.256338    0.336354
 Energy
       -118.829194966375
 PlusStress:  xx          yy          zz          yz          xz          xy
         2.86829     2.75765     3.04265     0.06716    -0.63065    -0.09432
 Feature   EFS_by	VASP
END_CFG

