BEGIN_CFG
 Size
    32
 Supercell
         8.095800      0.000000      0.000000
         0.000000      8.095800      0.000000
         0.000000      0.000000      8.095800
 AtomData:  id type       cartes_x      cartes_y      cartes_z           fx          fy          fz
             1    0      -0.016745      0.014087      0.017905    -0.061026   -0.090885   -0.043261
             2    0       0.007705      2.018787      2.010453    -0.022500    0.003422    0.028076
             3    0       2.067233     -0.009129      1.997663    -0.122277   -0.020627    0.152208
             4    0       1.990484      1.991762      0.013218     0.048887    0.174890   -0.048855
             5    0      -0.016274     -0.041414      4.024729     0.111843    0.111720    0.018357
             6    0      -0.017387      2.000645      6.081114    -0.027644    0.013544   -0.069398
             7    0       1.998727      0.003135      6.098078     0.027939   -0.007109   -0.095208
             8    0       1.986866      2.027159      4.021700     0.074449   -0.055374    0.038747
             9    0      -0.020428      4.060387      0.017322     0.079162   -0.020757   -0.061371
            10    0      -0.030866      6.071619      1.972401     0.124776    0.020215    0.122541
            11    0       2.060946      4.064553      1.988914    -0.187745    0.017545    0.035245
            12    0       2.023486      6.111103      0.001877     0.009567   -0.138405   -0.070780
            13    0       0.009246      4.075605      4.055495     0.019711   -0.080418   -0.150235
            14    0       0.017462      6.045515      6.054355    -0.086648    0.140324    0.140872
            15    0       2.003669      4.020710      6.079192     0.074321    0.082337    0.067751
            16    0       2.013809      6.110373      4.046392     0.088068   -0.066543   -0.067653
            17    0       4.051807      0.039409      0.013292     0.045146   -0.082193   -0.044946
            18    0       4.017292      2.040212      1.997621     0.126788   -0.033429    0.092903
            19    0       6.058264     -0.005893      2.042926    -0.016271    0.024590   -0.151746
            20    0       6.074814      2.035609     -0.005880    -0.027975   -0.033416    0.021212
            21    0       4.081812      0.017961      4.082976    -0.178681   -0.016978   -0.143407
            22    0       4.016878      2.032667      6.088739     0.099248    0.019724   -0.078995
            23    0       6.058716     -0.007988      6.062022     0.117709    0.021054    0.104465
            24    0       6.101182      1.991947      3.992814    -0.089762    0.179266    0.161386
            25    0       4.088588      4.059324      0.002380    -0.129735   -0.030226   -0.096057
            26    0       4.056868      6.051001      1.988298     0.007503    0.146988    0.133553
            27    0       6.084870      4.047827      2.024127    -0.002598   -0.033856    0.026245
            28    0       6.043091      6.089563      0.011348     0.102419    0.022981   -0.111218
            29    0       4.040548      4.076797      4.033138     0.040645   -0.078797    0.054914
            30    0       4.065838      6.089183      6.072142    -0.086678   -0.047922    0.012450
            31    0       6.095122      4.061095      6.048835    -0.076072   -0.070747    0.019237
            32    0       6.089770      6.081872      4.029088    -0.082570   -0.070917    0.002968
 Energy
       -119.260072290076
 PlusStress:  xx          yy          zz          yz          xz          xy
         0.95002     0.96393     0.96115     0.11628    -0.13457     0.03587
 Feature   EFS_by	VASP
END_CFG

