BEGIN_CFG
 Size
    32
 Supercell
         8.095800      0.000000      0.000000
         0.000000      8.095800      0.000000
         0.000000      0.000000      8.095800
 AtomData:  id type       cartes_x      cartes_y      cartes_z           fx          fy          fz
             1    0       0.181957      0.015564     -0.065374    -0.607221    0.217922    0.035035
             2    0       0.049920      2.058519      2.050120     0.044014    0.008510   -0.291040
             3    0       2.016889     -0.036994      2.262236    -0.314734   -0.000587   -0.445946
             4    0       2.011778      2.024604     -0.221653     0.155105   -0.327982    1.386022
             5    0      -0.100282      0.010913      4.019654     0.049515   -0.003676    0.292888
             6    0       0.012590      2.189064      6.171188    -0.666500   -0.399758   -0.440675
             7    0       2.077158      0.068174      5.962124    -0.083916   -0.256627   -0.157025
             8    0       1.980501      2.119892      4.054771     0.146788   -0.157528   -0.096746
             9    0       0.118167      4.146657      0.133147     0.172415   -0.439565   -0.204486
            10    0      -0.149001      6.184528      1.910733     0.832187   -0.149383    0.715632
            11    0       2.170229      4.184587      2.084870    -0.233119   -0.341501   -0.229391
            12    0       2.111687      6.291708      0.108961    -0.105561   -0.794741   -0.035854
            13    0      -0.110909      3.988352      3.952396     0.132609    0.333325    0.183254
            14    0       0.370165      6.059871      6.090795    -0.764041   -0.124305   -0.078921
            15    0       2.080458      3.881503      6.147802    -0.067160    1.057452   -0.406433
            16    0       2.132987      5.981053      4.025190    -0.274856    0.283765    0.223516
            17    0       3.984743      0.010055     -0.045029     0.437421    0.081058   -0.072615
            18    0       3.884558      1.821414      1.909521     0.181580    0.619541    0.355646
            19    0       6.154275      0.156533      1.884802    -0.274575   -0.464324    0.344081
            20    0       6.030756      1.997371      0.045566     0.118592    0.363236   -0.445613
            21    0       4.114867     -0.123732      4.002155     0.014552    0.286651    0.308392
            22    0       4.041249      1.939647      6.084359     0.347095    0.119568   -0.104402
            23    0       6.025344     -0.127799      6.076056     0.294945    0.047141    0.092579
            24    0       5.868402      2.029639      4.082727     0.461639   -0.123461   -0.220311
            25    0       3.974375      3.986391      0.039563     0.027262    0.121993   -0.185095
            26    0       4.163734      6.228674      1.939549    -0.330980   -0.198602   -0.049087
            27    0       5.748603      4.054734      2.033282     0.544825   -0.674359    0.114471
            28    0       6.196346      5.838768      0.059897    -0.710562    0.759810   -0.719519
            29    0       4.019518      4.073900      4.226920     0.008204   -0.179514   -0.384260
            30    0       4.033060      6.025577      6.198354    -0.035118    0.074708   -0.165695
            31    0       5.982671      4.055495      6.116686     0.324672   -0.101197   -0.050422
            32    0       6.044450      5.971377      3.877285     0.174923    0.362432    0.732022
 Energy
       -117.717071778006
 PlusStress:  xx          yy          zz          yz          xz          xy
         7.33695     8.20365     7.97564     0.21077     1.00871    -0.24390
 Feature   EFS_by	VASP
END_CFG

