BEGIN_CFG
 Size
    8
 Supercell
         0.000000      5.431000      5.431000
         5.431000      0.000000      5.431000
         5.431000      5.431000      0.000000
 AtomData:  id type       cartes_x      cartes_y      cartes_z           fx          fy          fz
             1    0  235943.641676 101085.743701 171244.786366     0.000000    0.000000    0.000000
             2    0    7631.318335 -15240.468972    735.212112     0.000000    0.000000    0.000000
             3    0  301056306.261073 120098889.022919 -402339763.341395     0.000000    0.000000    0.000000
             4    0  -13364.970121  -6378.909893  -1358.546984     0.000000    0.000000    0.000000
             5    0    8310.756947   7701.165286 -14547.038533     0.000000    0.000000    0.000000
             6    0  -10195.450407   -637.529497   4410.621722     0.000000    0.000000    0.000000
             7    0   32981.518320  55275.271076  41418.404196     0.000000    0.000000    0.000000
             8    0  -301317591.152554 -120240672.190610 402137881.573897     0.000000    0.000000    0.000000
 Energy
        -29.958962948459
 PlusStress:  xx          yy          zz          yz          xz          xy
         0.00000     0.00000     0.00000     0.00000     0.00000     0.00000
 Feature   EFS_by	VASP
END_CFG

