BEGIN_CFG
 Size
    32
 Supercell
         8.095800      0.000000      0.000000
         0.000000      8.095800      0.000000
         0.000000      0.000000      8.095800
 AtomData:  id type       cartes_x      cartes_y      cartes_z           fx          fy          fz
             1    0       2.344644      3.601655      8.174147     0.213184   -0.141372   -0.225915
             2    0       2.401259      5.548533     10.097674    -0.205140    0.155513    0.219139
             3    0       4.380596      3.561161     10.118123     0.344545    0.021384    0.374356
             4    0       4.508104      5.524979      8.260863    -0.184653    0.248949   -0.264807
             5    0       2.418475      3.620149     12.155745    -0.104674   -0.044382    0.094630
             6    0       2.430296      5.679237     14.257836    -0.114878   -0.279399    0.058322
             7    0       4.401097      3.592111     14.220571    -0.141915   -0.156209    0.175233
             8    0       4.386172      5.621683     12.210336     0.112669    0.007628   -0.117459
             9    0       2.369146      7.617166      8.157749     0.208344    0.027834    0.103465
            10    0       2.448153      9.680289     10.169036    -0.291042   -0.200132    0.004782
            11    0       4.338536      7.617522     10.163851     0.320121   -0.119500    0.176389
            12    0       4.569482      9.669067      8.276737    -0.337065   -0.054326   -0.293307
            13    0       2.347455      7.575117     12.205872     0.120980    0.087526   -0.038323
            14    0       2.361960      9.680771     14.134310     0.557606   -0.223105    0.195352
            15    0       4.446659      7.659627     14.245470    -0.135109    0.057080    0.210066
            16    0       4.483299      9.602372     12.155196    -0.134609    0.117117    0.184940
            17    0       6.576738      3.567395      8.123394    -0.430478   -0.234599    0.202807
            18    0       6.504232      5.476557     10.254213    -0.293530    0.149146    0.088318
            19    0       8.463251      3.522930     10.180716     0.240628    0.178318    0.145611
            20    0       8.336872      5.529111      8.101205     0.573797    0.264921    0.067585
            21    0       6.418253      3.579322     12.334967     0.109737   -0.085270   -0.162913
            22    0       6.312766      5.592228     14.299568     0.306032    0.110724   -0.049702
            23    0       8.554971      3.453471     14.240133    -0.302046    0.515059   -0.236688
            24    0       8.371519      5.624062     12.356939     0.316983   -0.328341   -0.045231
            25    0       6.507377      7.618757      8.336774    -0.234672    0.018402   -0.274441
            26    0       6.583355      9.727246     10.308888    -0.342054   -0.363972   -0.303722
            27    0       8.428349      7.444938     10.242380     0.226607    0.392370   -0.011198
            28    0       8.542976      9.605183      8.073060    -0.077958    0.116089    0.645566
            29    0       6.526875      7.644935     12.400094    -0.328179   -0.025341   -0.408101
            30    0       6.425487      9.664757     14.360902     0.116625   -0.110794   -0.304697
            31    0       8.494314      7.665370     14.335372    -0.175246   -0.288107   -0.212855
            32    0       8.496665      9.578828     12.217756     0.065391    0.186785    0.002797
 Energy
       -118.682458744295
 PlusStress:  xx          yy          zz          yz          xz          xy
         4.57611     4.48149     3.69240     0.16356     0.47753     0.35894
 Feature   EFS_by	VASP
END_CFG

