BEGIN_CFG
 Size
    32
 Supercell
         8.095800      0.000000      0.000000
         0.000000      8.095800      0.000000
         0.000000      0.000000      8.095800
 AtomData:  id type       cartes_x      cartes_y      cartes_z           fx          fy          fz
             1    0      -0.022295     -0.020899      0.067595     0.033619    0.273445   -0.489355
             2    0      -0.137108      2.018693      2.008033     0.296644    0.247177    0.044108
             3    0       1.911800     -0.058204      2.156646     0.780750    0.196137   -0.397340
             4    0       2.036023      1.930580      0.237561    -0.081867    0.429179   -0.451787
             5    0       0.115743      0.053121      3.973568    -0.869200   -0.038016    0.345482
             6    0       0.087935      2.021186      5.997561     0.164912   -0.172803    0.444701
             7    0       1.981919     -0.057236      5.841582     0.242504    0.020455    0.675881
             8    0       2.168450      2.078144      4.006270    -0.414704   -0.295752    0.178787
             9    0      -0.021788      4.203816     -0.060280    -0.199555   -0.677787    0.302233
            10    0       0.101974      6.035597      2.011423    -0.810614    0.059040    0.233873
            11    0       1.867715      4.048285      2.076378     0.471371   -0.255338   -0.421821
            12    0       1.825780      6.139404      0.034580     0.705295   -0.018960   -0.483678
            13    0       0.143529      4.000509      4.151679    -0.522258   -0.157428   -0.453389
            14    0      -0.040807      5.965259      5.999574     0.207607    0.735469    0.233127
            15    0       2.066926      4.017572      6.137384     0.002464   -0.004710   -0.062370
            16    0       1.961445      5.973720      4.027881     0.365302    0.287295    0.206101
            17    0       3.892589     -0.031231      0.038513     0.295872    0.058298   -0.058097
            18    0       4.178184      2.027682      2.225769    -0.126526   -0.150670   -0.793696
            19    0       6.129134     -0.042687      1.923574    -0.351979    0.044013    0.430696
            20    0       6.086784      2.089087     -0.087796    -0.090959    0.110099    0.487906
            21    0       4.189168     -0.092527      4.023887    -0.144039   -0.020709   -0.086947
            22    0       4.081603      1.937912      6.063056    -0.347236    0.314888    0.036141
            23    0       6.113615      0.143972      6.103517     0.184751   -0.738036   -0.176952
            24    0       6.147084      2.041769      4.099491     0.024669   -0.044820   -0.134451
            25    0       3.949808      4.295106     -0.039226     0.219727   -0.904191    0.145562
            26    0       3.936400      6.027342      1.950947     0.137200    0.352711    0.519398
            27    0       6.060649      4.124839      2.138472     0.151511   -0.089137   -0.424884
            28    0       5.985369      6.169960     -0.018842     0.332652   -0.272272   -0.100600
            29    0       3.987064      4.100950      3.976434     0.353699    0.182539    0.431526
            30    0       4.069247      6.081177      6.047485    -0.014982    0.109160   -0.310741
            31    0       6.160507      3.998568      6.031724    -0.501462    0.290763   -0.025755
            32    0       6.279556      6.086219      3.992383    -0.495169    0.129962    0.156344
 Energy
       -118.100181773018
 PlusStress:  xx          yy          zz          yz          xz          xy
         5.97065     6.29531     7.62631     0.50803    -0.68762     0.14976
 Feature   EFS_by	VASP
END_CFG

