BEGIN_CFG
 Size
    32
 Supercell
         8.095800      0.000000      0.000000
         0.000000      8.095800      0.000000
         0.000000      0.000000      8.095800
 AtomData:  id type       cartes_x      cartes_y      cartes_z           fx          fy          fz
             1    0       0.035025      0.033761     -0.051900    -0.097460   -0.190907    0.241358
             2    0      -0.045670      1.871509      2.076949     0.053211    0.458157   -0.219335
             3    0       1.995945      0.039259      1.943724     0.180295   -0.293817    0.029694
             4    0       2.043866      1.989978     -0.014434    -0.026509    0.096758   -0.044198
             5    0       0.022246      0.143585      4.135166    -0.306869   -0.767292    0.097064
             6    0      -0.030741      2.080879      6.099107     0.296663    0.285552   -0.174164
             7    0       2.039228      0.019992      6.174099    -0.231581    0.088645   -0.578836
             8    0       2.065113      1.931297      3.914718     0.138457    0.238306    0.783227
             9    0       0.101781      3.940569      0.180304     0.051773    0.312041   -0.096304
            10    0      -0.049213      6.220009      2.009824     0.240107   -0.172990   -0.040681
            11    0       1.998742      3.872437      2.051299     0.126733    0.546937   -0.286054
            12    0       1.951152      5.989235     -0.107387     0.367300    0.125548    0.626917
            13    0      -0.001477      4.052020      3.897188     0.245371   -0.035982    0.602041
            14    0      -0.076498      5.987622      6.193049     0.123888   -0.101148   -0.752069
            15    0       2.043754      4.013057      5.943754    -0.260412    0.124400    0.084571
            16    0       1.901829      6.175495      3.973397     0.287367   -0.347549    0.652990
            17    0       4.146595      0.014876      0.142380    -0.310208   -0.093172   -0.326618
            18    0       4.134987      2.141903      1.985646     0.003093   -0.274744    0.187447
            19    0       6.023660      0.022886      2.134728     0.354823   -0.031698   -0.230238
            20    0       6.235592      2.052030      0.035604    -0.632557    0.036800   -0.005324
            21    0       4.093552     -0.066598      3.945214    -0.329847    0.435647    0.405540
            22    0       4.115682      1.919959      6.119074    -0.250020   -0.103261   -0.365763
            23    0       6.128309     -0.008332      6.140391    -0.051984   -0.068842   -0.151235
            24    0       6.082461      2.120836      4.065202    -0.181652   -0.353419   -0.210863
            25    0       3.993446      3.960188     -0.114919     0.348901    0.625783    0.157435
            26    0       3.907971      5.962747      2.007341     0.220076   -0.006578   -0.058755
            27    0       6.102239      4.163662      1.967759    -0.240573   -0.610948    0.117427
            28    0       6.060302      6.069356      0.133174    -0.280220    0.105579   -0.797211
            29    0       3.984770      4.019094      4.054905     0.121187    0.272970   -0.117394
            30    0       3.992264      6.282676      6.068582     0.406900   -1.093721    0.047100
            31    0       5.922591      4.052299      5.930365     0.081934    0.223671    0.355685
            32    0       6.137473      5.993433      4.059532    -0.448186    0.569275    0.066546
 Energy
       -118.591440348462
 PlusStress:  xx          yy          zz          yz          xz          xy
        20.88812    19.10123    20.64251    -0.79040     0.47860    -0.98305
 Feature   EFS_by	VASP
END_CFG

