BEGIN_CFG
 Size
    8
 Supercell
         0.000000      5.431000      5.431000
         5.431000      0.000000      5.431000
         5.431000      5.431000      0.000000
 AtomData:  id type       cartes_x      cartes_y      cartes_z           fx          fy          fz
             1    0    8248.363166   9126.321072 -16711.585359     0.000000    0.000000    0.000000
             2    0   47168.626975 -12605.215170 -36839.078276     0.000000    0.000000    0.000000
             3    0   27232.138069  29259.271308   7864.926876     0.000000    0.000000    0.000000
             4    0   -1064.210453     19.562009   1409.531235     0.000000    0.000000    0.000000
             5    0  -99067212.457009 -122275248.980728 -76737483.045316     0.000000    0.000000    0.000000
             6    0  98996851.955479 122233223.593232 76786920.666436     0.000000    0.000000    0.000000
             7    0   12504.044178  -3317.889013   8576.359552     0.000000    0.000000    0.000000
             8    0  -23706.686701  19565.113929 -13716.157916     0.000000    0.000000    0.000000
 Energy
        -31.348394844618
 PlusStress:  xx          yy          zz          yz          xz          xy
         0.00000     0.00000     0.00000     0.00000     0.00000     0.00000
 Feature   EFS_by	VASP
END_CFG

