BEGIN_CFG
 Size
    8
 Supercell
         0.000000      5.431000      5.431000
         5.431000      0.000000      5.431000
         5.431000      5.431000      0.000000
 AtomData:  id type       cartes_x      cartes_y      cartes_z           fx          fy          fz
             1    0      -0.130725      1.659965     -0.213287     0.677466   -0.071463   -0.169139
             2    0       1.306957      4.014360     -1.378323    -0.637918   -0.592067    0.145687
             3    0       2.002717     -2.985265      6.293599     0.172441    0.237806    0.090394
             4    0       4.201179      2.788138      2.727639     0.206413    0.252493    0.249684
             5    0       3.493572     -0.995571      5.875934    -0.084899   -0.450574    0.331080
             6    0      -2.043390      6.014814      4.201450     0.156695    0.147504    0.054457
             7    0       7.422460      6.147955      2.471809     0.395929    0.839270   -0.375617
             8    0       5.522734      5.130750      1.719931    -0.886126   -0.362969   -0.326545
 Energy
        -42.214152108403
 PlusStress:  xx          yy          zz          yz          xz          xy
       -17.06873   -22.20184   -21.07373    13.09732    -8.00139    -8.95147
 Feature   EFS_by	VASP
END_CFG

