BEGIN_CFG
 Size
    32
 Supercell
         8.095800      0.000000      0.000000
         0.000000      8.095800      0.000000
         0.000000      0.000000      8.095800
 AtomData:  id type       cartes_x      cartes_y      cartes_z           fx          fy          fz
             1    0       0.082713      0.049843      0.056290    -0.459197   -0.288640   -0.155824
             2    0      -0.261967      1.822307      2.275738     1.007587    1.121136   -0.745207
             3    0       1.943918      0.032301      2.069209     0.167440   -0.123898   -0.143119
             4    0       1.940185      1.911754     -0.032943     0.312447    0.450383   -0.169000
             5    0       0.012428     -0.049678      4.025666     0.091572   -0.417777    0.354901
             6    0       0.083882      1.915591      5.944905     0.117818    0.090511    0.249907
             7    0       2.178434     -0.136259      5.920468    -0.579027    0.522345    0.516797
             8    0       2.199823      2.011057      4.007727    -0.600300   -0.052380    0.314914
             9    0      -0.017075      3.921083     -0.145978     0.328081    0.521269    0.142985
            10    0       0.100441      5.991459      2.054827    -0.350701    0.068332   -0.309950
            11    0       1.924409      3.893268      2.056323     0.001775    0.112324   -0.229886
            12    0       2.139013      6.104004     -0.083898    -0.356747   -0.173575    0.394740
            13    0      -0.015287      4.009281      4.230329    -0.087358    0.211272   -0.414203
            14    0       0.146696      6.128031      6.119453    -0.385482   -0.096001   -0.114068
            15    0       2.156064      4.088258      6.051470    -0.051039   -0.249466    0.043268
            16    0       2.120825      5.961940      3.940592    -0.261485   -0.021591    0.480748
            17    0       3.959844      0.015984     -0.034384     0.332537    0.198679    0.017008
            18    0       3.967157      1.988714      1.857884     0.164867    0.057437    0.440305
            19    0       5.968198      0.084166      2.155716    -0.277901   -0.595397   -0.665873
            20    0       6.090370      2.157660      0.036795    -0.055423   -0.712383   -0.201751
            21    0       3.937363     -0.009901      4.028579     0.810446    0.096427   -0.053339
            22    0       4.125847      2.055079      6.172301    -0.199791   -0.132739   -0.212780
            23    0       6.203901      0.047523      6.068397    -0.382433    0.083011   -0.114118
            24    0       5.964589      2.026082      4.059375     0.008131   -0.071801    0.473396
            25    0       4.030825      4.073518      0.084322    -0.277234    0.211552   -0.128487
            26    0       3.955518      6.231754      2.072258     0.373411   -0.494507   -0.532806
            27    0       6.020323      4.123771      1.925423     0.256754    0.097641    0.330470
            28    0       5.997523      6.334750     -0.105902     0.394647   -0.403289    0.869664
            29    0       4.137288      3.895648      3.987024    -0.282160    0.740617   -0.034197
            30    0       4.162578      6.127997      6.082652    -0.572813    0.232454   -0.468432
            31    0       5.899741      4.275149      6.171892     0.729550   -0.676884   -0.379277
            32    0       6.036533      6.128863      3.913274     0.082028   -0.305063    0.443210
 Energy
       -117.919254325309
 PlusStress:  xx          yy          zz          yz          xz          xy
        25.92770    25.38401    22.62672    -0.77776    -0.51741    -0.44964
 Feature   EFS_by	VASP
END_CFG

