BEGIN_CFG
 Size
    32
 Supercell
         8.095800      0.000000      0.000000
         0.000000      8.095800      0.000000
         0.000000      0.000000      8.095800
 AtomData:  id type       cartes_x      cartes_y      cartes_z           fx          fy          fz
             1    0      -6.069633      6.075559      2.217013     0.286429   -0.101928    0.120093
             2    0      -5.990099      8.051181      4.236865    -0.073807    0.029646    0.002210
             3    0      -3.988646      6.013204      4.287284     0.080172    0.173760   -0.049642
             4    0      -4.053956      8.005740      2.172065     0.376263   -0.006091    0.295324
             5    0      -5.973734      6.077949      6.431116    -0.155755   -0.198018   -0.571030
             6    0      -6.068198      8.006724      8.409574     0.171735    0.453069   -0.282542
             7    0      -3.986299      5.903533      8.167232     0.132365    0.342927    0.668620
             8    0      -4.033838      8.027146      6.356925     0.172835    0.056892   -0.172255
             9    0      -5.855645     10.115594      2.315395    -0.464835   -0.057108   -0.200045
            10    0      -6.003482     12.178752      4.200228    -0.000833   -0.170818    0.244768
            11    0      -4.084208     10.193705      4.366058     0.335422   -0.428946   -0.339471
            12    0      -3.966311     12.229914      2.270792    -0.060301   -0.352834   -0.180825
            13    0      -6.065993     10.025137      6.297369     0.077406    0.029384    0.094263
            14    0      -6.019117     12.015828      8.280506    -0.124666    0.058930    0.171376
            15    0      -3.962670     10.102487      8.287296    -0.036432   -0.240545    0.199682
            16    0      -3.995402     12.000128      6.391010     0.080446    0.304416   -0.352459
            17    0      -1.880888      6.087921      2.288705    -0.250355   -0.143917    0.014844
            18    0      -2.154375      8.039122      4.263593     0.448228    0.026926   -0.052894
            19    0       0.223739      6.062626      4.215624    -0.602105   -0.053324    0.216555
            20    0      -0.044100      8.133222      2.352806     0.275454   -0.071755   -0.159919
            21    0      -1.953488      5.971286      6.356910    -0.020309    0.012235   -0.298858
            22    0      -2.006978      7.930384      8.292616     0.125818    0.313738    0.091236
            23    0       0.220920      6.111571      8.237593    -0.676421   -0.451922    0.265907
            24    0       0.049512      7.953152      6.285951    -0.044545    0.345995   -0.159113
            25    0      -1.936188     10.141682      2.289420    -0.166308   -0.297823   -0.004681
            26    0      -2.070752     12.071093      4.175939     0.373902    0.171138    0.359670
            27    0       0.137422     10.159246      4.290649    -0.222599   -0.167315   -0.173595
            28    0       0.121143     12.124230      2.262507    -0.203924   -0.212731   -0.070109
            29    0      -2.047109     10.061364      6.210179     0.402120    0.017184    0.244331
            30    0      -1.964411     11.959051      8.371043     0.156339    0.409929   -0.282137
            31    0       0.038363     10.009676      8.230281    -0.055106    0.173639    0.244197
            32    0       0.168821     12.093901      6.278759    -0.336635    0.035266    0.116500
 Energy
       -118.528437770556
 PlusStress:  xx          yy          zz          yz          xz          xy
         3.29175     2.74968     3.84686     0.36743     0.41508     0.68851
 Feature   EFS_by	VASP
END_CFG

