BEGIN_CFG
 Size
    8
 Supercell
         0.000000      5.431000      5.431000
         5.431000      0.000000      5.431000
         5.431000      5.431000      0.000000
 AtomData:  id type       cartes_x      cartes_y      cartes_z           fx          fy          fz
             1    0       1.981878      3.879545      0.410922    -0.245251    0.279132   -0.691596
             2    0      -0.334433      2.364812      1.021220     0.079722    0.321315   -0.102714
             3    0       2.398870     -0.461134     -1.867949     0.428148   -0.043099   -0.324032
             4    0       6.729561      1.558585      4.139001    -1.204250    0.432325    0.860552
             5    0      -1.206161      0.022816     -0.524704     0.681141    0.739425   -0.204736
             6    0       2.729221      6.408883      1.754336    -0.563309   -2.452973    0.168529
             7    0       3.425425      3.116179      8.733543     0.570685    0.611799    0.462070
             8    0       5.789266      4.717239      8.029942     0.253114    0.112076   -0.168075
 Energy
        -40.992971567222
 PlusStress:  xx          yy          zz          yz          xz          xy
       -44.00369   -44.00160   -47.19643   -23.17124    24.61033   -21.77483
 Feature   EFS_by	VASP
END_CFG

