BEGIN_CFG
 Size
    8
 Supercell
         0.000000      5.431000      5.431000
         5.431000      0.000000      5.431000
         5.431000      5.431000      0.000000
 AtomData:  id type       cartes_x      cartes_y      cartes_z           fx          fy          fz
             1    0    2187.927165   1974.263039    390.528277     0.000000    0.000000    0.000000
             2    0     -29.616314    -93.839844     73.698308     0.000000    0.000000    0.000000
             3    0  2020522.576365 -325676.795287 -1039064.015034     0.000000    0.000000    0.000000
             4    0    -487.897342    115.753232   -912.651747     0.000000    0.000000    0.000000
             5    0   35493.607543 -75161.847268 -41838.831684     0.000000    0.000000    0.000000
             6    0  -35617.845841  75561.488373  41792.119022     0.000000    0.000000    0.000000
             7    0    1222.155228   -261.147693    769.193481     0.000000    0.000000    0.000000
             8    0  -2023266.919996 323576.375547 1038811.819991     0.000000    0.000000    0.000000
 Energy
        -16.014855618681
 PlusStress:  xx          yy          zz          yz          xz          xy
         0.00000     0.00000     0.00000     0.00000     0.00000     0.00000
 Feature   EFS_by	VASP
END_CFG

