BEGIN_CFG
 Size
    32
 Supercell
         8.095800      0.000000      0.000000
         0.000000      8.095800      0.000000
         0.000000      0.000000      8.095800
 AtomData:  id type       cartes_x      cartes_y      cartes_z           fx          fy          fz
             1    0       0.160626     -0.035166      0.101854    -0.142578    0.099386   -0.378158
             2    0       0.024927      2.129706      1.950447    -0.204506   -0.429745    0.353704
             3    0       2.086246     -0.086496      2.077475    -0.365266    0.542304    0.170308
             4    0       2.063476      2.002032      0.004056    -0.209089    0.097187    0.069769
             5    0      -0.018964     -0.031245      4.021901     0.110123    0.023029    0.074919
             6    0      -0.023359      1.973851      6.115955     0.272782    0.031846   -0.267253
             7    0       2.097549     -0.138204      6.186465    -0.472282    0.775299   -0.413370
             8    0       1.910300      2.038153      4.036608     0.145532   -0.122159    0.067290
             9    0      -0.015326      4.002344     -0.002615     0.154109    0.419232   -0.256646
            10    0       0.070426      6.020790      1.971726    -0.275449    0.104476    0.113893
            11    0       1.923175      4.015027      1.999083     0.313826    0.186923    0.233991
            12    0       2.092162      6.110510      0.032811    -0.286173   -0.564430   -0.256584
            13    0      -0.106202      4.186778      4.097958     0.267100   -0.395492   -0.118025
            14    0       0.003018      5.982667      6.131899     0.080774    0.091956    0.102637
            15    0       2.196779      4.066191      5.990484    -0.604431   -0.042729    0.582112
            16    0       2.070903      6.133590      4.252295    -0.252574   -0.095842   -0.948332
            17    0       4.025276      0.013290     -0.075287     0.397549    0.140742    0.225201
            18    0       4.066572      1.903494      1.975817    -0.019942    0.238073    0.035708
            19    0       6.229470      0.077541      1.817552    -0.441808   -0.166057    0.261500
            20    0       6.134562      2.158694     -0.108379    -0.420512   -0.418056    0.338828
            21    0       4.110602      0.135972      4.053602    -0.477099   -0.563443    0.158289
            22    0       3.960564      2.060495      6.175199     0.361822   -0.135799   -0.345570
            23    0       6.235481     -0.156271      6.252428    -0.244969    0.589403   -0.486781
            24    0       5.987049      1.890249      4.075726     0.549196    0.539479    0.047199
            25    0       3.997818      4.060092      0.227384     0.010454   -0.213648   -0.593273
            26    0       3.948421      6.201540      1.915034     0.602190   -0.361582    0.711099
            27    0       6.017881      4.012569      2.105439     0.090420    0.054179   -0.163968
            28    0       5.882877      6.005911     -0.092200     0.564510   -0.209074    0.567642
            29    0       3.937693      4.014492      3.957516     0.329959    0.061740   -0.119103
            30    0       4.080655      6.142349      5.987581     0.326593   -0.280933    0.045771
            31    0       5.996562      4.035830      6.010482    -0.103179    0.080964   -0.094444
            32    0       6.023234      6.181142      3.846608    -0.057079   -0.077230    0.281649
 Energy
       -118.154537681674
 PlusStress:  xx          yy          zz          yz          xz          xy
         6.39589     5.80367     4.94331    -0.71385     0.06754     0.19043
 Feature   EFS_by	VASP
END_CFG

