BEGIN_CFG
 Size
    32
 Supercell
         8.080400      0.000000      0.000000
         0.000000      8.080400      0.000000
         0.000000      0.000000      8.080400
 AtomData:  id type       cartes_x      cartes_y      cartes_z           fx          fy          fz
             1    0       0.008370      7.994870      0.057370    -0.521194    1.501742   -2.093756
             2    0       8.062170      1.886890      2.083400    -0.516486    1.981004   -0.529490
             3    0       2.022060      7.992820      2.071470     1.560126    1.027693   -1.462251
             4    0       1.970550      2.002920      0.095530    -1.486653    0.879756   -1.592672
             5    0       3.933290      0.137440      7.992450     2.583712   -3.299589    2.554480
             6    0       3.869590      2.123540      2.002500     4.075201   -2.560542    0.717689
             7    0       6.038380      7.933530      2.013030     0.334552    2.781652   -1.171115
             8    0       5.960990      2.253160      0.143500     0.080106   -5.171423   -2.392126
             9    0       7.936630      4.037590      0.035960     4.411745    0.584910    0.018345
            10    0       0.012330      5.979040      2.064990    -0.475444    1.104201   -1.787709
            11    0       1.885700      3.909200      2.133200     0.975830    3.024691   -3.482611
            12    0       1.992790      6.015420      8.021020    -0.022065    1.383517    1.969173
            13    0       0.166470      7.987080      4.043050    -3.139477    2.404705    0.136869
            14    0       0.128600      2.093660      6.093500    -2.843933   -1.944648   -0.122752
            15    0       2.081300      0.107350      5.946550    -1.032892   -2.586395    1.099299
            16    0       2.105960      2.207420      4.039200    -1.645710   -3.955431    0.713777
            17    0       8.050630      4.085700      4.072580    -0.117274   -1.761202   -0.474806
            18    0       0.159730      6.072260      5.957540    -2.603344    0.555624    2.394394
            19    0       2.007450      4.111180      6.023480     0.788179   -1.199998    0.684029
            20    0       2.019040      5.935370      3.890850     2.472456    1.170541    2.848005
            21    0       3.876910      4.096580      0.067700     1.929149   -0.955380   -1.928056
            22    0       4.057900      5.902310      2.034560    -1.136073    3.227315   -0.643245
            23    0       6.073510      4.130470      2.025240     0.363675   -1.453601    0.580479
            24    0       6.002180      6.070360      7.959390     0.184779    0.157072    2.562296
            25    0       4.171930      8.064880      3.956650    -3.467713    0.880318    0.929087
            26    0       3.891950      2.050920      6.095990     4.442925    1.729925   -0.805245
            27    0       6.049990      8.000220      6.024750     1.407089    3.406831    1.288389
            28    0       6.140220      2.014310      4.079580    -0.485895   -1.025891   -0.055105
            29    0       4.277910      3.979800      3.985370    -3.961695    1.313196    2.354217
            30    0       3.990700      6.063650      5.999080     0.229968   -0.179574   -0.062474
            31    0       6.144100      4.110080      6.099470    -2.277474   -1.614906   -1.147411
            32    0       6.116640      6.097170      4.097040    -0.106167   -1.406112   -1.099704
 Energy
       -110.745750867783
 PlusStress:  xx          yy          zz          yz          xz          xy
        -2.09553    -0.68347     3.49658    -0.02059    -0.08523    -3.49141
 Feature   EFS_by	VASP
END_CFG

BEGIN_CFG
 Size
    32
 Supercell
         8.080400      0.000000      0.000000
         0.000000      8.080400      0.000000
         0.000000      0.000000      8.080400
 AtomData:  id type       cartes_x      cartes_y      cartes_z           fx          fy          fz
             1    0       0.009360      7.991940      0.060960    -0.538049    1.556349   -2.252592
             2    0       8.064260      1.887370      2.083270    -0.622253    2.010291   -0.493969
             3    0       2.017640      7.993980      2.067290     1.694699    0.928157   -1.369725
             4    0       1.971790      2.000710      0.101370    -1.453929    0.919127   -1.730126
             5    0       3.939470      0.143870      7.990680     2.438340   -3.425754    2.583450
             6    0       3.873190      2.119910      2.008000     4.038072   -2.462567    0.560528
             7    0       6.040900      7.933880      2.009040     0.263160    2.793929   -1.037477
             8    0       5.960820      2.250700      0.138510     0.130426   -5.158782   -2.273650
             9    0       7.937310      4.035840      0.037430     4.369002    0.617792    0.058933
            10    0       0.013140      5.980970      2.064530    -0.506854    1.019683   -1.743802
            11    0       1.883780      3.908890      2.133490     1.081008    3.018577   -3.468465
            12    0       1.989840      6.013110      8.017010     0.059819    1.456691    2.059814
            13    0       0.167220      7.990270      4.042930    -3.148961    2.341633    0.176441
            14    0       0.127670      2.091730      6.097710    -2.789287   -1.942185   -0.205560
            15    0       2.085820      0.106670      5.944180    -1.146146   -2.605082    1.175133
            16    0       2.110440      2.203800      4.040970    -1.788342   -3.840996    0.670770
            17    0       8.054650      4.091160      4.072680    -0.254769   -1.966632   -0.456591
            18    0       0.156040      6.070040      5.956060    -2.536255    0.652788    2.471018
            19    0       2.008520      4.111280      6.027480     0.741585   -1.262634    0.602731
            20    0       2.019890      5.934830      3.896280     2.471964    1.265047    2.701919
            21    0       3.880960      4.096400      0.066520     1.830959   -0.990666   -1.882326
            22    0       4.053730      5.903160      2.032500    -1.117697    3.279259   -0.628835
            23    0       6.066070      4.130870      2.023200     0.570314   -1.452878    0.587323
            24    0       6.002210      6.073200      7.963570     0.189178    0.070298    2.432411
            25    0       4.169970      8.065200      3.949840    -3.410587    0.809850    1.041622
            26    0       3.889430      2.051640      6.093130     4.501023    1.748553   -0.746257
            27    0       6.047040      7.996370      6.022600     1.468506    3.499956    1.302221
            28    0       6.137310      2.015870      4.079420    -0.396300   -1.025827   -0.064044
            29    0       4.276760      3.983390      3.982010    -3.968689    1.290839    2.490673
            30    0       3.989300      6.065620      6.001250     0.313109   -0.227375   -0.102661
            31    0       6.144230      4.106180      6.103720    -2.322544   -1.477503   -1.279172
            32    0       6.117230      6.098360      4.098370    -0.160501   -1.439939   -1.179735
 Energy
       -110.774943133373
 PlusStress:  xx          yy          zz          yz          xz          xy
        -2.11467    -0.62830     3.59896     0.06920    -0.15828    -3.55312
 Feature   EFS_by	VASP
END_CFG

BEGIN_CFG
 Size
    32
 Supercell
         8.080400      0.000000      0.000000
         0.000000      8.080400      0.000000
         0.000000      0.000000      8.080400
 AtomData:  id type       cartes_x      cartes_y      cartes_z           fx          fy          fz
             1    0       0.010310      7.989110      0.064410    -0.553818    1.610391   -2.404861
             2    0       8.066290      1.887930      2.083140    -0.724638    2.037095   -0.459911
             3    0       2.013360      7.995160      2.063080     1.823394    0.829792   -1.273427
             4    0       1.972880      1.998590      0.107060    -1.413004    0.955689   -1.865216
             5    0       3.945730      0.150040      7.989060     2.288827   -3.543017    2.604084
             6    0       3.877020      2.116130      2.013510     3.991318   -2.358390    0.400708
             7    0       6.043420      7.934340      2.005010     0.190996    2.805989   -0.899909
             8    0       5.960630      2.247980      0.133450     0.186009   -5.138078   -2.153580
             9    0       7.938280      4.034170      0.038880     4.315358    0.647969    0.096649
            10    0       0.013900      5.982950      2.063980    -0.535891    0.936318   -1.695258
            11    0       1.881910      3.908840      2.133510     1.187819    3.004663   -3.445606
            12    0       1.986890      6.010890      8.013130     0.139992    1.524927    2.146902
            13    0       0.167830      7.993560      4.042800    -3.155122    2.274590    0.214718
            14    0       0.126590      2.089740      6.101880    -2.732157   -1.938762   -0.288081
            15    0       2.090240      0.105810      5.941860    -1.253512   -2.617059    1.251921
            16    0       2.114780      2.199930      4.042830    -1.927572   -3.720498    0.620694
            17    0       8.058600      4.096420      4.072770    -0.386893   -2.164625   -0.437902
            18    0       0.152250      6.067860      5.954750    -2.467739    0.745857    2.543304
            19    0       2.009640      4.111320      6.031510     0.691488   -1.324056    0.520153
            20    0       2.020920      5.934360      3.901820     2.461983    1.358149    2.554502
            21    0       3.885060      4.096180      0.065190     1.731575   -1.023732   -1.833126
            22    0       4.049490      5.904200      2.030450    -1.095426    3.324323   -0.616833
            23    0       6.058760      4.131180      2.021250     0.771847   -1.450573    0.591947
            24    0       6.002230      6.076020      7.967850     0.194158   -0.017793    2.298387
            25    0       4.167840      8.065550      3.943110    -3.345821    0.735047    1.156357
            26    0       3.887170      2.052540      6.090220     4.553223    1.757692   -0.682686
            27    0       6.044210      7.992740      6.020530     1.524733    3.586946    1.313171
            28    0       6.134420      2.017380      4.079250    -0.309364   -1.024865   -0.072936
            29    0       4.275390      3.987060      3.978890    -3.972605    1.265258    2.617434
            30    0       3.987920      6.067530      6.003390     0.397537   -0.272469   -0.139584
            31    0       6.144240      4.102230      6.107830    -2.361445   -1.338090   -1.404951
            32    0       6.117810      6.099450      4.099590    -0.215247   -1.468690   -1.257063
 Energy
       -110.805254333628
 PlusStress:  xx          yy          zz          yz          xz          xy
        -2.12774    -0.56673     3.69557     0.15491    -0.22213    -3.59929
 Feature   EFS_by	VASP
END_CFG

BEGIN_CFG
 Size
    32
 Supercell
         8.080400      0.000000      0.000000
         0.000000      8.080400      0.000000
         0.000000      0.000000      8.080400
 AtomData:  id type       cartes_x      cartes_y      cartes_z           fx          fy          fz
             1    0       0.011210      7.986360      0.067710    -0.568248    1.664355   -2.550063
             2    0       8.068260      1.888580      2.083010    -0.823708    2.061135   -0.427351
             3    0       2.009230      7.996370      2.058840     1.945474    0.732777   -1.173466
             4    0       1.973810      1.996560      0.112600    -1.364325    0.989029   -1.998045
             5    0       3.952070      0.155950      7.987610     2.135173   -3.651587    2.616360
             6    0       3.881050      2.112210      2.019020     3.935703   -2.248193    0.238319
             7    0       6.045950      7.934900      2.000960     0.118255    2.817725   -0.758918
             8    0       5.960430      2.244990      0.128300     0.246418   -5.109042   -2.031446
             9    0       7.939520      4.032580      0.040320     4.251341    0.675384    0.130808
            10    0       0.014620      5.984950      2.063340    -0.562576    0.855143   -1.642173
            11    0       1.880090      3.909030      2.133260     1.296015    2.983668   -3.413848
            12    0       1.983950      6.008780      8.009410     0.218595    1.587644    2.229689
            13    0       0.168270      7.996950      4.042660    -3.157230    2.203589    0.251484
            14    0       0.125370      2.087690      6.106010    -2.672893   -1.934134   -0.370407
            15    0       2.094550      0.104750      5.939600    -1.354775   -2.621606    1.329428
            16    0       2.118990      2.195840      4.044780    -2.063586   -3.594476    0.564009
            17    0       8.062460      4.101500      4.072840    -0.513073   -2.355496   -0.418293
            18    0       0.148390      6.065730      5.953620    -2.398376    0.834340    2.610952
            19    0       2.010820      4.111300      6.035560     0.637793   -1.383961    0.436693
            20    0       2.022130      5.933970      3.907450     2.441921    1.449192    2.405877
            21    0       3.889180      4.095910      0.063730     1.631736   -1.054174   -1.780617
            22    0       4.045180      5.905440      2.028410    -1.069192    3.362490   -0.607312
            23    0       6.051590      4.131420      2.019380     0.967865   -1.447188    0.594618
            24    0       6.002240      6.078820      7.972230     0.199340   -0.107067    2.160357
            25    0       4.165550      8.065940      3.936470    -3.273793    0.655953    1.272873
            26    0       3.885190      2.053610      6.087290     4.599086    1.757572   -0.615522
            27    0       6.041500      7.989340      6.018540     1.576047    3.667819    1.321791
            28    0       6.131550      2.018830      4.079060    -0.224970   -1.022400   -0.081464
            29    0       4.273800      3.990810      3.975990    -3.973059    1.236349    2.734885
            30    0       3.986550      6.069380      6.005480     0.483500   -0.314839   -0.172544
            31    0       6.144110      4.098250      6.111810    -2.393775   -1.197410   -1.524961
            32    0       6.118390      6.100450      4.100710    -0.270683   -1.492592   -1.331711
 Energy
       -110.836934857097
 PlusStress:  xx          yy          zz          yz          xz          xy
        -2.13297    -0.49865     3.78484     0.23636    -0.27636    -3.62886
 Feature   EFS_by	VASP
END_CFG

BEGIN_CFG
 Size
    32
 Supercell
         8.080400      0.000000      0.000000
         0.000000      8.080400      0.000000
         0.000000      0.000000      8.080400
 AtomData:  id type       cartes_x      cartes_y      cartes_z           fx          fy          fz
             1    0       0.012050      7.983710      0.070840    -0.581156    1.717982   -2.687708
             2    0       8.070160      1.889320      2.082890    -0.918865    2.082448   -0.396545
             3    0       2.005240      7.997590      2.054590     2.061180    0.638120   -1.071253
             4    0       1.974610      1.994620      0.117960    -1.308654    1.019247   -2.127422
             5    0       3.958500      0.161610      7.986310     1.976847   -3.752114    2.621522
             6    0       3.885300      2.108160      2.024530     3.870823   -2.132344    0.073510
             7    0       6.048460      7.935570      1.996900     0.045947    2.828970   -0.615050
             8    0       5.960230      2.241740      0.123080     0.311326   -5.071656   -1.907929
             9    0       7.941020      4.031070      0.041750     4.177071    0.699883    0.161125
            10    0       0.015310      5.986980      2.062610    -0.587265    0.775839   -1.584598
            11    0       1.878350      3.909470      2.132740     1.404997    2.955353   -3.373059
            12    0       1.981020      6.006780      8.005830     0.295713    1.645161    2.308421
            13    0       0.168570      8.000430      4.042520    -3.156280    2.128880    0.286624
            14    0       0.124000      2.085590      6.110100    -2.611211   -1.928700   -0.452268
            15    0       2.098740      0.103500      5.937400    -1.449772   -2.619097    1.407822
            16    0       2.123060      2.191520      4.046820    -2.196896   -3.462421    0.500158
            17    0       8.066220      4.106360      4.072900    -0.632549   -2.537888   -0.398471
            18    0       0.144440      6.063650      5.952670    -2.327739    0.917982    2.673745
            19    0       2.012050      4.111210      6.039630     0.580804   -1.441984    0.352441
            20    0       2.023520      5.933660      3.913180     2.411751    1.537888    2.255650
            21    0       3.893330      4.095600      0.062140     1.531578   -1.082102   -1.724791
            22    0       4.040790      5.906890      2.026380    -1.038574    3.393284   -0.600360
            23    0       6.044570      4.131580      2.017590     1.158510   -1.442789    0.595951
            24    0       6.002240      6.081600      7.976690     0.204774   -0.197544    2.019074
            25    0       4.163100      8.066350      3.929910    -3.194571    0.573202    1.391578
            26    0       3.883480      2.054850      6.084330     4.639090    1.748219   -0.544987
            27    0       6.038920      7.986170      6.016630     1.622316    3.742772    1.327714
            28    0       6.128710      2.020240      4.078870    -0.143525   -1.019349   -0.089877
            29    0       4.271980      3.994630      3.973330    -3.969854    1.204345    2.842569
            30    0       3.985200      6.071170      6.007530     0.570757   -0.354516   -0.201856
            31    0       6.143850      4.094230      6.115640    -2.419878   -1.055561   -1.638261
            32    0       6.118970      6.101350      4.101720    -0.326695   -1.511510   -1.403472
 Energy
       -110.870564643553
 PlusStress:  xx          yy          zz          yz          xz          xy
        -2.13408    -0.42670     3.86265     0.31620    -0.32156    -3.64152
 Feature   EFS_by	VASP
END_CFG

BEGIN_CFG
 Size
    32
 Supercell
         8.080400      0.000000      0.000000
         0.000000      8.080400      0.000000
         0.000000      0.000000      8.080400
 AtomData:  id type       cartes_x      cartes_y      cartes_z           fx          fy          fz
             1    0       0.012850      7.981150      0.073800    -0.592788    1.771216   -2.817962
             2    0       8.071990      1.890140      2.082780    -1.010036    2.101155   -0.367449
             3    0       2.001410      7.998820      2.050330     2.169790    0.545767   -0.966866
             4    0       1.975280      1.992770      0.123170    -1.246256    1.046379   -2.254113
             5    0       3.964990      0.167010      7.985180     1.814510   -3.844712    2.619285
             6    0       3.889750      2.103990      2.030020     3.797150   -2.010716   -0.092805
             7    0       6.050970      7.936340      1.992820    -0.026360    2.839617   -0.468330
             8    0       5.960020      2.238230      0.117800     0.380725   -5.025638   -1.783320
             9    0       7.942790      4.029630      0.043170     4.092166    0.721299    0.187460
            10    0       0.015940      5.989030      2.061810    -0.609057    0.698651   -1.523363
            11    0       1.876680      3.910140      2.131970     1.514741    2.920443   -3.323712
            12    0       1.978100      6.004880      8.002390     0.371385    1.697739    2.383107
            13    0       0.168710      8.004000      4.042370    -3.151784    2.050330    0.320181
            14    0       0.122500      2.083430      6.114130    -2.547517   -1.922048   -0.533172
            15    0       2.102810      0.102070      5.935260    -1.538578   -2.609747    1.486893
            16    0       2.126970      2.187000      4.048940    -2.326846   -3.324426    0.429465
            17    0       8.069880      4.111020      4.072940    -0.745630   -2.712250   -0.378118
            18    0       0.140400      6.061630      5.951890    -2.255722    0.996729    2.731651
            19    0       2.013320      4.111060      6.043710     0.520838   -1.498069    0.267515
            20    0       2.025080      5.933430      3.918980     2.371665    1.624140    2.104322
            21    0       3.897490      4.095250      0.060420     1.431526   -1.107563   -1.665534
            22    0       4.036330      5.908530      2.024350    -1.003725    3.417297   -0.595822
            23    0       6.037700      4.131660      2.015880     1.343601   -1.437880    0.595716
            24    0       6.002240      6.084340      7.981230     0.210246   -0.288600    1.874662
            25    0       4.160500      8.066790      3.923430    -3.108455    0.486717    1.511955
            26    0       3.882050      2.056270      6.081340     4.672947    1.729529   -0.471330
            27    0       6.036470      7.983240      6.014790     1.663527    3.811462    1.331540
            28    0       6.125910      2.021590      4.078660    -0.065066   -1.014819   -0.097775
            29    0       4.269950      3.998540      3.970910    -3.963234    1.168259    2.940539
            30    0       3.983880      6.072900      6.009540     0.659121   -0.391726   -0.227357
            31    0       6.143470      4.090190      6.119330    -2.439772   -0.913529   -1.745277
            32    0       6.119540      6.102140      4.102610    -0.383113   -1.525006   -1.471986
 Energy
       -110.905852882616
 PlusStress:  xx          yy          zz          yz          xz          xy
        -2.13077    -0.34969     3.92782     0.39383    -0.35742    -3.63930
 Feature   EFS_by	VASP
END_CFG

BEGIN_CFG
 Size
    32
 Supercell
         8.080400      0.000000      0.000000
         0.000000      8.080400      0.000000
         0.000000      0.000000      8.080400
 AtomData:  id type       cartes_x      cartes_y      cartes_z           fx          fy          fz
             1    0       0.013600      7.978680      0.076590    -0.603023    1.824178   -2.940713
             2    0       8.073740      1.891060      2.082690    -1.096996    2.116825   -0.340221
             3    0       1.997740      8.000060      2.046060     2.271530    0.456436   -0.860509
             4    0       1.975820      1.991020      0.128210    -1.177220    1.070291   -2.377358
             5    0       3.971540      0.172150      7.984210     1.648223   -3.929474    2.610438
             6    0       3.894400      2.099700      2.035490     3.714998   -1.883559   -0.260736
             7    0       6.053470      7.937220      1.988750    -0.098084    2.849388   -0.319523
             8    0       5.959820      2.234470      0.112460     0.454161   -4.971195   -1.657586
             9    0       7.944810      4.028280      0.044590     3.997102    0.739323    0.209213
            10    0       0.016540      5.991090      2.060940    -0.628787    0.623870   -1.458321
            11    0       1.875090      3.911030      2.130940     1.625161    2.879515   -3.265348
            12    0       1.975210      6.003090      7.999110     0.445684    1.745136    2.453311
            13    0       0.168700      8.007650      4.042220    -3.144055    1.968244    0.352081
            14    0       0.120870      2.081200      6.118120    -2.481914   -1.913867   -0.613443
            15    0       2.106760      0.100440      5.933200    -1.621406   -2.593033    1.566398
            16    0       2.130720      2.182270      4.051120    -2.453326   -3.180575    0.352911
            17    0       8.073440      4.115450      4.072970    -0.852025   -2.877651   -0.357388
            18    0       0.136290      6.059660      5.951300    -2.182806    1.070419    2.784345
            19    0       2.014630      4.110830      6.047810     0.458198   -1.551842    0.182011
            20    0       2.026810      5.933300      3.924870     2.321497    1.706948    1.951658
            21    0       3.901680      4.094850      0.058580     1.331445   -1.130149   -1.602789
            22    0       4.031790      5.910370      2.022330    -0.964278    3.434246   -0.593847
            23    0       6.031000      4.131670      2.014250     1.522307   -1.432558    0.594197
            24    0       6.002240      6.087050      7.985840     0.215202   -0.380582    1.727784
            25    0       4.157750      8.067260      3.917050    -3.015477    0.396979    1.633719
            26    0       3.880910      2.057860      6.078340     4.700409    1.701671   -0.395466
            27    0       6.034150      7.980540      6.013030     1.699895    3.874117    1.333077
            28    0       6.123150      2.022890      4.078450     0.010490   -1.009221   -0.105079
            29    0       4.267700      4.002530      3.968730    -3.952906    1.128252    3.028796
            30    0       3.982590      6.074570      6.011510     0.748596   -0.426816   -0.248809
            31    0       6.142950      4.086140      6.122880    -2.452974   -0.771735   -1.845751
            32    0       6.120100      6.102830      4.103380    -0.439622   -1.533579   -1.537052
 Energy
       -110.943533143911
 PlusStress:  xx          yy          zz          yz          xz          xy
        -2.12063    -0.26708     3.98021     0.46949    -0.38347    -3.62097
 Feature   EFS_by	VASP
END_CFG

BEGIN_CFG
 Size
    32
 Supercell
         8.080400      0.000000      0.000000
         0.000000      8.080400      0.000000
         0.000000      0.000000      8.080400
 AtomData:  id type       cartes_x      cartes_y      cartes_z           fx          fy          fz
             1    0       0.014290      7.976320      0.079190    -0.611939    1.876350   -3.055994
             2    0       8.075400      1.892070      2.082620    -1.179349    2.129857   -0.315026
             3    0       1.994230      8.001300      2.041780     2.366089    0.370323   -0.752779
             4    0       1.976250      1.989350      0.133070    -1.102304    1.091535   -2.496680
             5    0       3.978160      0.177030      7.983390     1.477418   -4.006794    2.595386
             6    0       3.899240      2.095300      2.040940     3.624527   -1.751198   -0.430249
             7    0       6.055940      7.938200      1.984680    -0.168517    2.858472   -0.168860
             8    0       5.959620      2.230460      0.107060     0.531398   -4.908145   -1.531066
             9    0       7.947080      4.027000      0.046000     3.891875    0.754334    0.226464
            10    0       0.017080      5.993160      2.060010    -0.645962    0.551555   -1.390238
            11    0       1.873600      3.912150      2.129680     1.735615    2.832141   -3.198990
            12    0       1.972350      6.001400      7.995980     0.518203    1.787990    2.519122
            13    0       0.168550      8.011390      4.042080    -3.133365    1.882512    0.381888
            14    0       0.119110      2.078920      6.122050    -2.413843   -1.904409   -0.692900
            15    0       2.110590      0.098610      5.931210    -1.698316   -2.568985    1.646383
            16    0       2.134300      2.177350      4.053360    -2.576030   -3.031303    0.270649
            17    0       8.076900      4.119650      4.072980    -0.951973   -3.033971   -0.336368
            18    0       0.132090      6.057760      5.950880    -2.108422    1.138498    2.832082
            19    0       2.015980      4.110530      6.051910     0.392735   -1.603222    0.096187
            20    0       2.028700      5.933250      3.930820     2.261293    1.786699    1.798302
            21    0       3.905870      4.094410      0.056630     1.231935   -1.150312   -1.536715
            22    0       4.027180      5.912410      2.020310    -0.920542    3.444027   -0.594254
            23    0       6.024460      4.131600      2.012670     1.694514   -1.426760    0.592011
            24    0       6.002220      6.089720      7.990520     0.220115   -0.473438    1.578265
            25    0       4.154860      8.067750      3.910740    -2.916135    0.304447    1.757308
            26    0       3.880040      2.059620      6.075330     4.721791    1.664752   -0.317854
            27    0       6.031950      7.978070      6.011340     1.731404    3.930774    1.332390
            28    0       6.120430      2.024150      4.078230     0.083187   -1.002954   -0.111540
            29    0       4.265230      4.006590      3.966780    -3.938632    1.084590    3.107448
            30    0       3.981320      6.076170      6.013440     0.839465   -0.459581   -0.266614
            31    0       6.142300      4.082070      6.126270    -2.459819   -0.630094   -1.939177
            32    0       6.120650      6.103430      4.104020    -0.496414   -1.537692   -1.598581
 Energy
       -110.983191238933
 PlusStress:  xx          yy          zz          yz          xz          xy
        -2.10341    -0.17890     4.01872     0.54352    -0.40144    -3.58650
 Feature   EFS_by	VASP
END_CFG

BEGIN_CFG
 Size
    32
 Supercell
         8.080400      0.000000      0.000000
         0.000000      8.080400      0.000000
         0.000000      0.000000      8.080400
 AtomData:  id type       cartes_x      cartes_y      cartes_z           fx          fy          fz
             1    0       0.014940      7.974050      0.081600    -0.619855    1.928090   -3.163677
             2    0       8.076980      1.893170      2.082570    -1.257245    2.140248   -0.291696