BEGIN_CFG
 Size
    8
 Supercell
         0.000000      5.431000      5.431000
         5.431000      0.000000      5.431000
         5.431000      5.431000      0.000000
 AtomData:  id type       cartes_x      cartes_y      cartes_z           fx          fy          fz
             1    0    1123.484509   5735.741242  18442.350071     0.000000    0.000000    0.000000
             2    0   22103.368952  10855.469967 -29300.229224     0.000000    0.000000    0.000000
             3    0  -162692.460238   5159.954322  72028.702418     0.000000    0.000000    0.000000
             4    0    2066.625814  10342.125022    518.453815     0.000000    0.000000    0.000000
             5    0  -15650914.419700 -47158605.414484 55790434.488820     0.000000    0.000000    0.000000
             6    0  -58473.527571 -46178.269698   6174.775532     0.000000    0.000000    0.000000
             7    0  -161922.317921 -59253.354148 -16337.888283     0.000000    0.000000    0.000000
             8    0  16008730.931541 47231965.476223 -55841938.944291     0.000000    0.000000    0.000000
 Energy
        282.601617951252
 PlusStress:  xx          yy          zz          yz          xz          xy
         0.00000     0.00000     0.00000     0.00000     0.00000     0.00000
 Feature   EFS_by	VASP
END_CFG

