BEGIN_CFG
 Size
    32
 Supercell
         8.095800      0.000000      0.000000
         0.000000      8.095800      0.000000
         0.000000      0.000000      8.095800
 AtomData:  id type       cartes_x      cartes_y      cartes_z           fx          fy          fz
             1    0  -14460353.785756 12992681.749653 -2603896.918011     0.000000    0.000000    0.000000
             2    0  39039302.007516 -355238798.123985 -215548983.738920     0.000000    0.000000    0.000000
             3    0  77058298313.549515 -25085166338.864864 -61616155167.227196     0.000000    0.000000    0.000000
             4    0  -4277631083.062497 3262821726.568640 722809264.466717     0.000000    0.000000    0.000000
             5    0  34881489.507800 28223036.248260 3485317.875069     0.000000    0.000000    0.000000
             6    0  -894238.194448 -312537.999311 513299.703603     0.000000    0.000000    0.000000
             7    0  -58233146604.033440 153683816.077626 -69113133840.394424     0.000000    0.000000    0.000000
             8    0  827263.040382 163250.104496 -636931.891620     0.000000    0.000000    0.000000
             9    0  -214461.733462 19706318.482120 -71716927.862695     0.000000    0.000000    0.000000
            10    0  -607754.321167 312339.975442 365678.844337     0.000000    0.000000    0.000000
            11    0  -760213.867992 -3001882.689322 3462722.306588     0.000000    0.000000    0.000000
            12    0  1420464.896667 2714326.741849 -3772444.517242     0.000000    0.000000    0.000000
            13    0  -1749218362.824009 603692756.763961 458791655.398998     0.000000    0.000000    0.000000
            14    0  -3551636.278013 1479993.562344 1402420.273615     0.000000    0.000000    0.000000
            15    0   76031.649489 150217.998095 124239.418925     0.000000    0.000000    0.000000
            16    0  9943294.517201 2168237.580774 4282120.681912     0.000000    0.000000    0.000000
            17    0  -14050957455.256804 20528201987.994965 130314107095.955719     0.000000    0.000000    0.000000
            18    0  69622575846.129166 107435985284.224625 -63820181281.740097     0.000000    0.000000    0.000000
            19    0  404438241.771350 -176912443.269477 437472239.695879     0.000000    0.000000    0.000000
            20    0  -1435665.021357 194160.467114 -735976.369579     0.000000    0.000000    0.000000
            21    0  -20912515.341120 14494195.709514 3673755.484042     0.000000    0.000000    0.000000
            22    0  -44784.390403 2777984.866100 -2271473.877431     0.000000    0.000000    0.000000
            23    0  -249646470.514189 -76262519.108532 -430660543.108833     0.000000    0.000000    0.000000
            24    0  -50544510.261761 335284022.739390 289851943.347625     0.000000    0.000000    0.000000
            25    0  -14245254.772527 103048474.408130 99397146.522215     0.000000    0.000000    0.000000
            26    0  -247439139.682520 1097401784.727641 15971214.940537     0.000000    0.000000    0.000000
            27    0  299521.579479 3344458.925932 -1255672.085423     0.000000    0.000000    0.000000
            28    0  5293304.289115 826461.519280 759324.641388     0.000000    0.000000    0.000000
            29    0  -68282822300.533623 -107881438617.780304 62926982532.756859     0.000000    0.000000    0.000000
            30    0  -356731.471228 -392847.318377 843687.044756     0.000000    0.000000    0.000000
            31    0  592505.336160 -16749899.511367 -1062941.882607     0.000000    0.000000    0.000000
            32    0  21204054.172059 -14191535.784123 -4559480.525524     0.000000    0.000000    0.000000
 Energy
         35.455255355520
 PlusStress:  xx          yy          zz          yz          xz          xy
         0.00000     0.00000     0.00000     0.00000     0.00000     0.00000
 Feature   EFS_by	VASP
END_CFG

