BEGIN_CFG
 Size
    32
 Supercell
         8.095800      0.000000      0.000000
         0.000000      8.095800      0.000000
         0.000000      0.000000      8.095800
 AtomData:  id type       cartes_x      cartes_y      cartes_z           fx          fy          fz
             1    0      -0.060108      0.072200      0.015389     0.254189   -0.437775   -0.138649
             2    0       0.155716      1.893503      2.108664    -0.473163    0.137541    0.096111
             3    0       2.059297     -0.114600      1.847649    -0.302205    0.236708    0.715965
             4    0       1.989272      2.104752      0.132442    -0.063412   -0.268359   -0.683977
             5    0       0.021048     -0.008371      4.182456    -0.001759    0.217966   -0.324654
             6    0      -0.025138      2.033472      6.077241     0.073767    0.136194    0.035221
             7    0       2.204844     -0.049633      6.224212    -0.507312    0.395200   -0.169002
             8    0       2.086835      1.945650      4.156766     0.062695   -0.052952   -0.205583
             9    0      -0.032888      4.192545     -0.053304     0.296307   -0.382706    0.094102
            10    0      -0.007087      6.107113      1.989303    -0.022777   -0.093019    0.034107
            11    0       2.002224      4.043074      2.017716    -0.008091    0.192581    0.094902
            12    0       2.057636      6.050755     -0.096261    -0.050665   -0.249802    0.120394
            13    0      -0.029104      3.909625      3.978058    -0.113363    0.259265   -0.112439
            14    0      -0.168671      6.094534      6.017345     0.961618    0.286394    0.289747
            15    0       2.035188      4.103950      5.859554    -0.135751   -0.056137    0.606447
            16    0       1.855576      6.088335      4.017989     0.344645    0.016929   -0.002743
            17    0       4.106537     -0.025785      0.204285     0.198715    0.096396   -0.972956
            18    0       4.051967      2.026326      1.954172    -0.099072   -0.040981    0.378665
            19    0       6.065894     -0.046510      2.032653     0.199541    0.169461    0.162924
            20    0       6.239536      2.100267      0.128439    -0.402541   -0.083947   -0.278655
            21    0       3.961050     -0.133598      4.144767     0.019953    0.365582   -0.552116
            22    0       4.103080      2.118022      6.194170    -0.019290   -0.373790   -0.247443
            23    0       6.060445      0.028926      6.085000    -0.221504    0.090057    0.261528
            24    0       5.845445      1.892069      4.031072     0.558899    0.294929    0.028761
            25    0       3.984492      3.952357     -0.028019     0.281812    0.726462    0.132708
            26    0       4.001798      6.088402      2.016762     0.117387   -0.418770    0.115627
            27    0       6.027649      4.060095      1.975091     0.163546    0.067394    0.306627
            28    0       6.092216      6.036166      0.033446    -0.418447    0.247702   -0.116402
            29    0       4.054768      4.063138      4.011076     0.014737    0.028322   -0.100053
            30    0       4.089977      6.092429      5.974978    -0.081219   -0.368386    0.547718
            31    0       6.143582      4.236116      5.916292    -0.509704   -0.959895    0.377611
            32    0       6.093220      6.169084      4.044064    -0.117535   -0.178564   -0.494492
 Energy
       -118.279566520727
 PlusStress:  xx          yy          zz          yz          xz          xy
         4.14514     6.15042     5.44587    -0.43756    -0.48741    -0.47475
 Feature   EFS_by	VASP
END_CFG

