BEGIN_CFG
 Size
    32
 Supercell
         8.095800      0.000000      0.000000
         0.000000      8.095800      0.000000
         0.000000      0.000000      8.095800
 AtomData:  id type       cartes_x      cartes_y      cartes_z           fx          fy          fz
             1    0      -0.092790      0.076874      0.020495     0.418390   -0.132382   -0.003258
             2    0       0.051421      2.140525      1.983484    -0.148404   -0.397936    0.177289
             3    0       2.049256      0.078947      1.998417    -0.032985    0.122271   -0.001105
             4    0       2.104442      2.094083     -0.026713    -0.069404   -0.015696    0.217279
             5    0      -0.053530      0.042363      4.046002     0.138295    0.243029    0.063381
             6    0      -0.010439      2.177633      6.194811     0.085441   -0.302780   -0.457278
             7    0       1.937322     -0.040758      6.223318    -0.052672    0.082321   -0.354426
             8    0       2.250833      2.172667      4.079668    -0.652380   -0.298380    0.145552
             9    0      -0.020600      4.107790      0.090784     0.321511    0.077280   -0.204495
            10    0      -0.044052      6.184689      2.062678     0.474685   -0.038480   -0.272363
            11    0       2.025998      4.132451      2.069610     0.153606   -0.089289    0.005671
            12    0       2.086133      6.085656      0.169650    -0.353368   -0.023663   -0.482577
            13    0      -0.057732      4.062169      3.916227     0.110157   -0.185866    0.386333
            14    0      -0.138780      5.881250      5.978913     0.416427    0.656935    0.044316
            15    0       1.998394      4.103796      6.138064     0.159652    0.036729   -0.031072
            16    0       2.022618      6.199165      4.011511    -0.216583   -0.366700    0.089709
            17    0       4.086333     -0.066992     -0.080617     0.013692    0.097168    0.399916
            18    0       4.058643      2.123646      2.039077     0.048927   -0.170121   -0.289765
            19    0       6.075180     -0.028759      1.968867    -0.279188    0.414116    0.179984
            20    0       6.043380      2.010595     -0.010373     0.079528    0.155080    0.343390
            21    0       3.966142     -0.050997      4.038092     0.353228    0.119496   -0.011955
            22    0       4.116929      1.925637      6.154947    -0.331955    0.363601   -0.160714
            23    0       6.126664      0.060281      6.046925    -0.074301   -0.368395   -0.154038
            24    0       5.867765      2.022722      4.011299     0.643697    0.054307    0.014119
            25    0       4.174412      4.096417      0.093933    -0.519083   -0.187867   -0.565137
            26    0       4.124383      6.022306      1.943784    -0.304787    0.482988    0.391639
            27    0       6.100604      4.219956      1.922587     0.047864   -0.851351    0.373522
            28    0       6.173897      6.091547     -0.042322    -0.272251    0.200067   -0.206605
            29    0       4.101444      4.138492      4.191210    -0.117375   -0.004081   -0.384247
            30    0       3.960025      6.068997      6.066116     0.299989    0.093408    0.167694
            31    0       6.048906      4.044615      6.131268    -0.233968   -0.117093   -0.173436
            32    0       6.057695      6.039159      3.883190    -0.106386    0.351287    0.752674
 Energy
       -118.400410128620
 PlusStress:  xx          yy          zz          yz          xz          xy
         4.63525     4.17466     4.95222     0.36099     0.22308     0.28596
 Feature   EFS_by	VASP
END_CFG

