BEGIN_CFG
 Size
    32
 Supercell
         8.095800      0.000000      0.000000
         0.000000      8.095800      0.000000
         0.000000      0.000000      8.095800
 AtomData:  id type       cartes_x      cartes_y      cartes_z           fx          fy          fz
             1    0       0.018042      0.043870      0.016902    -0.085383   -0.247811   -0.325094
             2    0      -0.088311      1.959207      1.944251     0.464413    0.425673    0.201210
             3    0       2.042006     -0.004834      1.955805    -0.185637    0.023999    0.085681
             4    0       2.096798      1.981813     -0.076045    -0.142047   -0.009868    0.535035
             5    0       0.034507      0.005413      3.945503    -0.051363   -0.096566    0.176961
             6    0       0.138677      1.914969      5.964142    -0.369532    0.013492    0.256829
             7    0       2.189345     -0.000441      6.066395    -0.686250   -0.109156    0.183905
             8    0       1.999404      2.107390      3.922536     0.069617   -0.382859    0.291327
             9    0       0.088541      4.073768     -0.250930    -0.184810   -0.242713    0.733006
            10    0      -0.126023      6.039067      1.995647     0.500466   -0.076894    0.151830
            11    0       2.009774      4.020168      1.960649    -0.100195    0.155163   -0.023691
            12    0       2.040478      6.049289     -0.036060    -0.398638    0.394196    0.143744
            13    0      -0.004434      3.941747      4.095324     0.068925    0.497606   -0.161101
            14    0      -0.042030      6.109007      5.984697     0.188210    0.115350    0.236884
            15    0       2.138069      3.915026      6.172085    -0.552614    0.279430   -0.847616
            16    0       2.046916      6.035386      4.116490    -0.233261   -0.118665   -0.292662
            17    0       4.214195      0.063886     -0.095508    -0.585969   -0.282063    0.650206
            18    0       4.016471      1.924610      2.142468     0.126084    0.228907   -0.454665
            19    0       6.017207     -0.024850      2.029515     0.087285    0.046379    0.106494
            20    0       6.089168      2.160099      0.140419    -0.263795   -0.100038   -0.284909
            21    0       3.980447     -0.060293      4.189493     0.395213    0.186266   -0.472814
            22    0       4.054390      2.069771      6.148659     0.242278   -0.055750   -0.362102
            23    0       5.958942      0.099979      6.166209     0.853598   -0.246589   -0.474321
            24    0       6.098300      2.098938      3.952549    -0.157192   -0.536492    0.526242
            25    0       4.014213      4.244497     -0.063848     0.405728   -0.965915    0.960053
            26    0       3.988827      6.236134      1.987963     0.125456   -0.469799    0.132612
            27    0       5.935761      4.150058      2.194933     0.164096   -0.106534   -0.574132
            28    0       6.136236      5.957408      0.028224    -0.166769    0.419408   -0.265576
            29    0       4.028593      4.022844      4.042848    -0.136372    0.109747    0.145172
            30    0       3.933970      5.899279      6.127820     0.698233    0.869416   -0.466215
            31    0       6.049268      3.929044      6.137956     0.124780    0.285246   -0.357194
            32    0       6.068658      6.110475      4.178583    -0.214555   -0.002567   -0.155096
 Energy
       -118.148069562963
 PlusStress:  xx          yy          zz          yz          xz          xy
         5.84249     3.67498     5.73592    -1.38278    -1.20928    -0.04179
 Feature   EFS_by	VASP
END_CFG

