BEGIN_CFG
 Size
    8
 Supercell
         0.000000      5.431000      5.431000
         5.431000      0.000000      5.431000
         5.431000      5.431000      0.000000
 AtomData:  id type       cartes_x      cartes_y      cartes_z           fx          fy          fz
             1    0      -0.011022      0.038351      0.059668    -0.286408    0.117181   -0.760160
             2    0       2.741593      2.730102     -0.034803    -0.452096    0.203364    0.383261
             3    0       2.648809      0.005649      2.656220     0.369492    0.153859    0.617427
             4    0       5.501297      2.646836      2.631770    -0.254607    0.048582    0.664390
             5    0      -0.074501      2.670984      2.768203     0.409624    0.636368   -0.358382
             6    0       2.817673      5.379786      2.792538    -0.738799    0.021866   -0.615760
             7    0       2.679363      2.782966      5.369240     0.359975   -0.799848    0.167583
             8    0       5.415384      5.415817      5.489778     0.592818   -0.381373   -0.098359
 Energy
        -45.001588905558
 PlusStress:  xx          yy          zz          yz          xz          xy
         3.75545     3.91227     4.01254     0.02617    -0.05388     0.20344
 Feature   EFS_by	VASP
END_CFG

