BEGIN_CFG
 Size
    32
 Supercell
         8.095800      0.000000      0.000000
         0.000000      8.095800      0.000000
         0.000000      0.000000      8.095800
 AtomData:  id type       cartes_x      cartes_y      cartes_z           fx          fy          fz
             1    0      -0.081852      0.055328     -0.062804     0.411918   -0.432403    0.399717
             2    0       0.036161      1.984920      2.171494    -0.212576    0.481200   -0.134773
             3    0       1.974138      0.086791      1.978315     0.110614   -0.112984    0.285915
             4    0       2.021165      2.153068      0.083238    -0.221086   -0.480281   -0.061484
             5    0      -0.030644     -0.044625      3.991844     0.477038   -0.007990    0.540879
             6    0      -0.141184      1.865703      6.103525     0.591106    0.712936   -0.289125
             7    0       2.130819     -0.013751      6.052550    -0.446474   -0.076490    0.087442
             8    0       1.987671      2.014566      4.209936    -0.110208   -0.058233   -0.309036
             9    0      -0.123553      3.961681      0.159604     0.033356    0.054140   -0.442345
            10    0      -0.101176      5.950649      1.970879     0.266425    0.595768    0.220082
            11    0       1.981000      4.198680      2.052319     0.128998   -0.512186   -0.085918
            12    0       1.941543      6.175512      0.095307     0.047329   -0.440916   -0.251037
            13    0       0.088389      4.270697      4.158204    -0.096653   -0.925218   -0.222899
            14    0       0.004719      5.983969      6.224381    -0.121950    0.424163    0.021118
            15    0       1.911135      4.014279      6.194523     0.139851    0.135844   -0.128939
            16    0       2.104537      6.165897      3.938384    -0.127345    0.018371    0.372475
            17    0       3.931883     -0.163348      0.047513     0.542313    0.597379   -0.085463
            18    0       4.046739      2.024922      2.001203     0.095992   -0.348039   -0.006557
            19    0       6.218650     -0.023617      2.090389    -0.628668    0.145159   -0.300177
            20    0       6.133198      1.964264      0.042149    -0.564473    0.199936    0.324364
            21    0       4.195671     -0.088431      4.076195    -0.377483    0.210303   -0.313143
            22    0       4.081423      2.024097      6.154851    -0.224514   -0.272776   -0.074766
            23    0       6.009830      0.029892      6.085846    -0.001858   -0.534558    0.231564
            24    0       6.031103      2.001166      4.130289     0.201326    0.208510   -0.332174
            25    0       4.024895      3.994983     -0.074986     0.140613    0.383916    0.552313
            26    0       4.117219      6.030850      2.054104    -0.207024    0.186397    0.071930
            27    0       5.988578      4.128988      2.186312     0.297646   -0.572802   -0.251556
            28    0       6.026109      6.106399      0.077363     0.002842   -0.168705   -0.355625
            29    0       3.949232      3.860118      3.984985     0.045882    0.615940    0.451586
            30    0       4.009731      5.983398      6.031478    -0.058012    0.074997    0.026496
            31    0       5.959396      4.075991      6.079483     0.534220   -0.105966    0.005461
            32    0       6.244559      6.086559      4.138346    -0.669144    0.004588    0.053676
 Energy
       -118.260710192991
 PlusStress:  xx          yy          zz          yz          xz          xy
         7.23094     7.01673     5.97224    -0.38165     0.42416     0.34475
 Feature   EFS_by	VASP
END_CFG

