BEGIN_CFG
 Size
    32
 Supercell
         8.095800      0.000000      0.000000
         0.000000      8.095800      0.000000
         0.000000      0.000000      8.095800
 AtomData:  id type       cartes_x      cartes_y      cartes_z           fx          fy          fz
             1    0      -0.037091     -0.016066     -0.010708     0.065587   -0.159937   -0.005371
             2    0      -0.079814      1.944290      1.938389     0.512497    0.229771    0.446145
             3    0       2.022422     -0.160551      2.034595    -0.114392    0.531414   -0.208056
             4    0       2.185971      1.917702      0.055109    -0.263876    0.112712   -0.105469
             5    0      -0.045890      0.024278      4.118820     0.145898   -0.008949   -0.372072
             6    0       0.135922      1.949812      6.087391    -0.267429    0.418576    0.084879
             7    0       2.109393      0.019369      6.029948     0.094461   -0.083990    0.078593
             8    0       1.974389      2.040661      3.944892    -0.066123    0.006221    0.112243
             9    0      -0.023610      3.915017      0.129492    -0.136046    0.325011   -0.809135
            10    0      -0.208729      6.070865      2.011304     0.312360   -0.088039    0.219499
            11    0       1.848597      4.157047      1.902721     0.632248   -0.359215    0.731249
            12    0       2.087638      5.982760     -0.018299    -0.266481    0.613180    0.015204
            13    0       0.041736      4.096755      4.134699     0.062856    0.043164   -0.272601
            14    0       0.121036      6.186725      6.090072    -0.505858   -0.321783    0.121217
            15    0       1.990976      4.144484      6.179834     0.098421   -0.503092   -0.406806
            16    0       1.967175      6.141035      4.045700     0.269427   -0.277579    0.070946
            17    0       4.180534     -0.101547     -0.126666    -0.090751    0.395871    0.571926
            18    0       4.012140      2.167706      2.115202    -0.059310   -0.345873   -0.424319
            19    0       6.150848      0.072317      2.089128    -0.624811   -0.228541   -0.191575
            20    0       6.048444      2.056051     -0.006094    -0.133693   -0.259115   -0.279253
            21    0       4.140171      0.086048      3.982378    -0.319080   -0.199858   -0.009064
            22    0       4.050032      2.013169      5.954526     0.014549    0.243120    0.298462
            23    0       6.078559      0.099830      5.967142     0.088240    0.034003    0.342877
            24    0       6.072377      2.266624      3.998326     0.256502   -0.910681    0.379832
            25    0       4.117446      4.038450     -0.110887    -0.352113   -0.406736    0.309886
            26    0       4.014070      6.076663      1.990243     0.351657   -0.186153    0.212830
            27    0       6.002308      3.974202      2.041078     0.136462    0.615971   -0.162375
            28    0       6.050067      5.848384     -0.011451     0.454071    0.679858    0.070294
            29    0       4.005194      4.060773      4.089643    -0.329596    0.387311    0.006094
            30    0       4.145439      6.068919      6.167749    -0.503388   -0.073975   -0.516657
            31    0       6.147690      4.093411      5.988245     0.032936   -0.368062    0.532791
            32    0       5.937353      6.073257      4.234096     0.504777    0.145396   -0.842212
 Energy
       -118.205550632538
 PlusStress:  xx          yy          zz          yz          xz          xy
         4.17204     5.61512     6.26170    -0.05982     0.03563     0.58451
 Feature   EFS_by	VASP
END_CFG

