BEGIN_CFG
 Size
    32
 Supercell
         8.095800      0.000000      0.000000
         0.000000      8.095800      0.000000
         0.000000      0.000000      8.095800
 AtomData:  id type       cartes_x      cartes_y      cartes_z           fx          fy          fz
             1    0       0.001602      0.028362     -0.006211    -0.138515   -0.616127    0.112818
             2    0      -0.062893      1.942919      1.886305     0.272638    0.256943    0.735686
             3    0       1.941981      0.057692      2.110022     0.445548   -0.181177   -0.294442
             4    0       2.057711      1.870972     -0.009579     0.049436    0.361587    0.053735
             5    0      -0.004807     -0.016042      3.984362    -0.068996    0.068304    0.063921
             6    0      -0.088207      1.912232      6.174111     0.463467    0.431038   -0.398683
             7    0       1.976329     -0.087288      5.903549     0.091428    0.407357    0.169259
             8    0       2.043398      2.119989      3.978062    -0.239449   -0.249713   -0.102866
             9    0       0.185406      3.963806      0.024731    -0.315990    0.282810   -0.160367
            10    0       0.075984      5.969945      1.984402    -0.019173    0.263652    0.115200
            11    0       2.091495      4.111468      2.015663    -0.254937   -0.511482    0.020810
            12    0       2.021482      6.222207     -0.173951    -0.122824   -0.340718    0.627747
            13    0      -0.000116      3.861709      4.214052    -0.143603    0.477540   -0.353509
            14    0      -0.069061      6.060097      6.009659     0.117273   -0.051516    0.031030
            15    0       2.030064      4.214370      6.079021    -0.141913   -0.266850    0.029728
            16    0       2.043222      6.025376      3.949995    -0.258658    0.213682    0.261649
            17    0       4.056857     -0.004780     -0.022250     0.244713    0.133883    0.016144
            18    0       4.237094      2.058333      2.195502    -0.678442   -0.101798   -0.471148
            19    0       6.039258     -0.059445      2.017183     0.060609    0.293455   -0.321738
            20    0       6.105954      2.106446      0.029572    -0.436737   -0.169610   -0.168830
            21    0       4.045275     -0.029656      4.093938    -0.056431    0.045724   -0.091795
            22    0       3.792364      2.197204      5.964213     0.742645   -0.486932    0.402519
            23    0       6.174797     -0.028510      6.076371    -0.603069   -0.105757    0.146657
            24    0       6.055814      1.967654      4.113971     0.177323    0.123710    0.281838
            25    0       4.016945      3.995806      0.129702     0.089065   -0.021722   -0.337002
            26    0       3.963064      6.045910      1.945497     0.217079    0.352539    0.150971
            27    0       6.172155      4.006852      2.154973    -0.096350    0.102050   -0.043807
            28    0       6.126000      5.934327      0.168128    -0.013099    0.323456   -0.337723
            29    0       4.031378      4.193063      4.100181     0.340409   -0.196501   -0.255899
            30    0       4.107325      6.052478      6.127384    -0.025965    0.361302   -0.089975
            31    0       6.018371      4.174877      6.186619     0.211055   -0.569807   -0.302387
            32    0       6.054014      6.202596      3.896476     0.091464   -0.629322    0.510459
 Energy
       -118.237075934336
 PlusStress:  xx          yy          zz          yz          xz          xy
         5.22647     5.54400     4.86979    -0.39767     0.43150    -0.65521
 Feature   EFS_by	VASP
END_CFG

