BEGIN_CFG
 Size
    8
 Supercell
         0.000000      5.431000      5.431000
         5.431000      0.000000      5.431000
         5.431000      5.431000      0.000000
 AtomData:  id type       cartes_x      cartes_y      cartes_z           fx          fy          fz
             1    0   67463.214422 177227.790149 263523.888045     0.000000    0.000000    0.000000
             2    0   -3305.593549  -1641.931557   1225.230918     0.000000    0.000000    0.000000
             3    0  -772068.931470 1031848.195200 -538767.845329     0.000000    0.000000    0.000000
             4    0    1579.882292  12332.515484    294.370114     0.000000    0.000000    0.000000
             5    0    -199.033039  -1215.158320  -1291.969035     0.000000    0.000000    0.000000
             6    0  -64281.172440 -189581.231161 -262037.076528     0.000000    0.000000    0.000000
             7    0  770383.642518 -1029006.417534 537403.047458     0.000000    0.000000    0.000000
             8    0     449.788246     57.966805   -327.978939     0.000000    0.000000    0.000000
 Energy
        -31.348394844618
 PlusStress:  xx          yy          zz          yz          xz          xy
         0.00000     0.00000     0.00000     0.00000     0.00000     0.00000
 Feature   EFS_by	VASP
END_CFG

