BEGIN_CFG
 Size
    32
 Supercell
         8.095800      0.000000      0.000000
         0.000000      8.095800      0.000000
         0.000000      0.000000      8.095800
 AtomData:  id type       cartes_x      cartes_y      cartes_z           fx          fy          fz
             1    0       0.081164     -0.045292      0.158415    -0.213705   -0.342414   -0.630277
             2    0      -0.100128      1.951011      1.805626     0.655574    0.178811    1.268883
             3    0       2.114272      0.199045      1.891586    -0.161994   -0.871814    0.793306
             4    0       2.110277      1.983541      0.007515    -0.144103    0.395976   -0.450141
             5    0       0.085435      0.023622      3.978044    -0.177968    0.024818    0.026941
             6    0      -0.080788      2.065092      6.097567     0.309772   -0.164360   -0.197258
             7    0       2.084869     -0.075293      5.968949    -0.383365    0.438378    0.111027
             8    0       2.070793      2.098643      3.942285    -0.272987    0.050083    0.170474
             9    0       0.028778      3.996334      0.045101    -0.102264    0.218949   -0.199528
            10    0       0.067164      5.899568      2.010360    -0.430146    0.661253    0.007440
            11    0       2.023758      4.128907      1.907564     0.130602   -0.788280    0.214904
            12    0       1.999454      6.078075     -0.124012     0.099473    0.074325    0.539678
            13    0      -0.073940      3.869322      3.887721     0.333347    0.315045    0.423124
            14    0      -0.075628      5.917197      6.061509     0.417965    0.467070   -0.090917
            15    0       2.003152      4.037526      6.152088     0.092704   -0.143637   -0.354104
            16    0       1.951350      6.011156      3.852798     0.046326    0.280894    0.804716
            17    0       4.049280     -0.001427      0.024111     0.308826   -0.050734   -0.117966
            18    0       4.109980      2.011244      2.064144     0.023567    0.211529   -0.383810
            19    0       6.048536     -0.186286      2.103025     0.140527    0.752542   -0.231730
            20    0       6.186691      2.080232      0.065965    -1.021825   -0.222930   -0.505983
            21    0       4.072369      0.181004      4.044095    -0.289209   -0.698147    0.132228
            22    0       4.045453      2.076858      6.059834     0.155100    0.024874    0.235289
            23    0       6.190356     -0.033564      6.293904    -0.208106    0.093904   -0.196034
            24    0       6.000969      2.025718      3.968961     0.431202    0.019112    0.375686
            25    0       4.088887      3.995685      0.203316     0.062973    0.258351   -0.760497
            26    0       3.966943      6.069218      2.094557     0.198183    0.203798   -0.305315
            27    0       6.075221      4.034473      2.070290    -0.220832    0.201286    0.089836
            28    0       6.107465      6.063234      0.221539    -0.202473   -0.243397   -0.721017
            29    0       3.974049      4.142447      4.083489     0.184518   -0.226829   -0.097366
            30    0       3.942395      6.092459      6.080866     0.394221   -0.112132    0.084151
            31    0       6.056187      4.174348      6.053035    -0.375103   -0.543417    0.189840
            32    0       5.965036      6.242112      4.182035     0.219203   -0.462908   -0.225580
 Energy
       -117.976952070235
 PlusStress:  xx          yy          zz          yz          xz          xy
         4.77441     3.82703     5.47908    -0.48328     1.07921     0.27026
 Feature   EFS_by	VASP
END_CFG

