BEGIN_CFG
 Size
    32
 Supercell
         8.095800      0.000000      0.000000
         0.000000      8.095800      0.000000
         0.000000      0.000000      8.095800
 AtomData:  id type       cartes_x      cartes_y      cartes_z           fx          fy          fz
             1    0      -0.095853     -0.250853     -0.024221     0.071780    0.647642    0.209548
             2    0       0.050882      1.845035      1.985952    -0.487653    0.420625    0.004558
             3    0       1.996011      0.029159      1.947408     0.422170   -0.186257    0.323568
             4    0       1.973084      1.961052     -0.023826     0.047222    0.286708   -0.149601
             5    0      -0.046647     -0.048949      4.095126     0.094458   -0.019943   -0.013523
             6    0      -0.078165      2.071504      6.005628     0.237245   -0.042108    0.649918
             7    0       1.950979     -0.066922      6.108177     0.160580    0.276723   -0.430820
             8    0       1.747592      2.017871      4.066678     0.945993   -0.233072   -0.136245
             9    0      -0.085225      4.093163      0.120752     0.246759   -0.028108   -0.537766
            10    0      -0.070313      6.107878      2.110202     0.291920    0.073675   -0.263801
            11    0       1.874128      4.077281      1.969317     0.518068   -0.084091   -0.061201
            12    0       2.152609      6.218012     -0.013362    -0.120857   -0.726970    0.088710
            13    0       0.120984      4.131810      4.064202    -0.598101   -0.030369   -0.085571
            14    0      -0.022295      6.014595      6.067996     0.119492   -0.035903    0.043072
            15    0       2.055003      4.037771      5.968309     0.031451    0.185614    0.535313
            16    0       2.096628      6.121274      3.897778    -0.178124    0.182157    0.391545
            17    0       4.195736      0.089192     -0.096265    -0.434613   -0.024602    0.414953
            18    0       4.054271      2.148644      2.102647    -0.040205   -0.493004    0.135060
            19    0       5.999918     -0.006179      2.174625     0.244353    0.135207   -0.559819
            20    0       6.199436      2.034339      0.077529    -0.198531   -0.160033   -0.059419
            21    0       4.136345      0.076177      4.075568    -0.472609   -0.161559   -0.090253
            22    0       4.040869      2.066565      5.927544    -0.078417    0.037999    0.264484
            23    0       6.068966      0.059244      6.124589     0.215021   -0.229629   -0.337670
            24    0       6.178152      2.089167      4.083869    -0.275031   -0.035790   -0.409500
            25    0       4.142166      3.857096      0.084939    -0.314220    0.511856   -0.420228
            26    0       4.145466      6.009704      2.016093    -0.393450    0.363295   -0.087984
            27    0       6.141342      4.142189      2.123026    -0.072116   -0.597302   -0.069690
            28    0       5.978648      6.018113      0.021899     0.154173    0.031428   -0.192178
            29    0       4.003620      4.142013      3.989113     0.146904   -0.324875    0.125389
            30    0       4.082320      6.082320      5.990210    -0.114518    0.053347    0.182953
            31    0       6.045834      4.073617      5.996597     0.060389   -0.061439    0.299304
            32    0       6.126110      6.036675      4.065420    -0.229533    0.268779    0.236897
 Energy
       -118.423882806823
 PlusStress:  xx          yy          zz          yz          xz          xy
        24.26534    23.74582    25.76748     0.05518    -0.56329    -0.71977
 Feature   EFS_by	VASP
END_CFG

