BEGIN_CFG
 Size
    8
 Supercell
         0.000000      5.431000      5.431000
         5.431000      0.000000      5.431000
         5.431000      5.431000      0.000000
 AtomData:  id type       cartes_x      cartes_y      cartes_z           fx          fy          fz
             1    0      -0.611399      0.640328      0.883358     2.264879    5.153698   -0.503504
             2    0       4.021484      3.267503     -0.562686     1.024100   -1.815874   -4.460523
             3    0       1.302375     -1.173807      3.052330     8.946684    1.507564    4.475088
             4    0       5.779413      3.091112      1.188380    -4.015187    3.721264    1.549750
             5    0       0.119234      1.736235      3.839733     1.655740   -5.312674   -2.650299
             6    0       4.271170      4.372973      2.606854    -1.938787   -2.722287    0.331093
             7    0       1.895293      4.238954      5.093087    -5.025979   -0.422990   -0.025956
             8    0       4.950838      5.538610      5.584630    -2.911451   -0.108701    1.284351
 Energy
       -412.782081124597
 PlusStress:  xx          yy          zz          yz          xz          xy
      -202.93344   294.86114   152.64441   295.55369    40.47539    16.11073
 Feature   EFS_by	VASP
END_CFG

