BEGIN_CFG
 Size
    8
 Supercell
         0.000000      5.431000      5.431000
         5.431000      0.000000      5.431000
         5.431000      5.431000      0.000000
 AtomData:  id type       cartes_x      cartes_y      cartes_z           fx          fy          fz
             1    0  3077714.151811 1970622.475802 -1320842.820650     0.000000    0.000000    0.000000
             2    0  -76167980.413290 123334660.630604 118245849.925287     0.000000    0.000000    0.000000
             3    0  -35770.721057  -7797.632388  14504.220145     0.000000    0.000000    0.000000
             4    0   10339.993869  -3537.770762  -2013.724936     0.000000    0.000000    0.000000
             5    0  -3065809.512974 -1979674.437287 1316887.343703     0.000000    0.000000    0.000000
             6    0  76172223.407802 -123326976.047703 -118217989.894042     0.000000    0.000000    0.000000
             7    0   -3049.178453  -7684.581164  -8540.765963     0.000000    0.000000    0.000000
             8    0   12353.973932  20409.074258 -27832.554980     0.000000    0.000000    0.000000
 Energy
        -13.114647974610
 PlusStress:  xx          yy          zz          yz          xz          xy
         0.00000     0.00000     0.00000     0.00000     0.00000     0.00000
 Feature   EFS_by	VASP
END_CFG

