BEGIN_CFG
 Size
    32
 Supercell
         8.095800      0.000000      0.000000
         0.000000      8.095800      0.000000
         0.000000      0.000000      8.095800
 AtomData:  id type       cartes_x      cartes_y      cartes_z           fx          fy          fz
             1    0       0.049292      0.303711      0.570465     0.079486    0.331470   -0.265133
             2    0       0.156596      2.298035      2.522783    -0.182324    0.196803   -0.409587
             3    0       2.212680      0.345132      2.445380    -0.063217    0.161083    0.107201
             4    0       2.098789      2.356131      0.430070     0.253897   -0.161648    0.192829
             5    0       0.253501      0.347344      4.355968    -0.418973   -0.267593    0.411607
             6    0       0.161055      2.421230      6.509324    -0.337450   -0.421400    0.155825
             7    0       2.047954      0.365827      6.548509     0.061980   -0.060189   -0.206381
             8    0       2.031788      2.463587      4.456425     0.671376   -0.443691    0.220324
             9    0       0.245355      4.263881      0.530817    -0.381153    0.371142   -0.212407
            10    0       0.169206      6.332606      2.392789    -0.150337    0.061135    0.476465
            11    0       2.134028      4.330067      2.540621     0.088153    0.047400   -0.310130
            12    0       2.059620      6.539839      0.435725     0.227499   -0.514793   -0.174363
            13    0       0.099771      4.337924      4.513874    -0.207059    0.376353   -0.206617
            14    0       0.065278      6.468107      6.434968     0.161752   -0.116775    0.211113
            15    0       2.058306      4.331453      6.527819     0.381411    0.501743    0.017089
            16    0       2.042615      6.318023      4.453351     0.243671    0.176460    0.398168
            17    0       4.101102      0.359635      0.435695     0.315461   -0.004693    0.115378
            18    0       4.211307      2.454284      2.401923    -0.212977   -0.221003    0.255637
            19    0       6.139491      0.369596      2.523107    -0.070270   -0.240682   -0.033988
            20    0       6.178967      2.410096      0.468951     0.068584   -0.167748   -0.234432
            21    0       4.106711      0.371381      4.551763     0.026848    0.003619   -0.103490
            22    0       4.068417      2.337315      6.511007     0.259835    0.127456    0.061609
            23    0       6.240988      0.378103      6.602522    -0.073055    0.071671   -0.200511
            24    0       6.294758      2.358986      4.493304    -0.331436   -0.154405    0.114841
            25    0       4.150566      4.474527      0.426524    -0.106014   -0.071025   -0.024110
            26    0       3.990029      6.342787      2.578873     0.595142    0.114513   -0.276572
            27    0       6.233717      4.334720      2.402089    -0.008470    0.201390    0.368010
            28    0       6.311275      6.339685      0.514360    -0.393051    0.125712   -0.192554
            29    0       4.268348      4.337176      4.574429    -0.297114    0.007050   -0.103876
            30    0       4.227979      6.487500      6.577184    -0.225839   -0.167479   -0.087317
            31    0       6.263114      4.400189      6.522491    -0.131595   -0.092423    0.235217
            32    0       6.137947      6.374215      4.531780     0.155239    0.230546   -0.299848
 Energy
       -118.636698470542
 PlusStress:  xx          yy          zz          yz          xz          xy
         3.59686     4.18200     3.86571    -0.43110    -0.41047     0.14003
 Feature   EFS_by	VASP
END_CFG

