BEGIN_CFG
 Size
    32
 Supercell
         8.095800      0.000000      0.000000
         0.000000      8.095800      0.000000
         0.000000      0.000000      8.095800
 AtomData:  id type       cartes_x      cartes_y      cartes_z           fx          fy          fz
             1    0      -0.021294      0.079073      0.017729    -0.099387   -0.451822    0.173638
             2    0      -0.112156      1.927001      2.065173     0.576792    0.283745    0.007092
             3    0       2.009716      0.071077      2.127079     0.047698   -0.230284   -0.018837
             4    0       1.994512      1.964522     -0.040573     0.082745    0.364722    0.224466
             5    0      -0.166840     -0.182677      4.066103     0.437277    0.680552    0.393868
             6    0      -0.044480      2.096247      6.086577     0.154433   -0.337272   -0.266330
             7    0       1.826768      0.063662      6.098478     0.509795   -0.250477   -0.380123
             8    0       2.012690      2.089832      4.048162    -0.120694   -0.130661   -0.094682
             9    0      -0.067797      4.008032     -0.038733     0.416146    0.337742    0.173289
            10    0      -0.015032      6.138808      2.141727     0.392501   -0.274794   -0.930958
            11    0       2.010817      4.019661      1.920216    -0.037865    0.060422    0.238618
            12    0       2.017012      6.083576     -0.051152    -0.367409    0.079591    0.275876
            13    0       0.081447      4.248188      4.019036    -0.122088   -0.657273    0.029743
            14    0       0.008180      6.026234      6.136321    -0.054907    0.070365   -0.050790
            15    0       2.063477      4.032702      5.983298    -0.066541   -0.013341    0.397041
            16    0       2.166931      5.988513      4.114389     0.028786    0.470679   -0.359635
            17    0       3.996687      0.051491      0.058183     0.058594    0.150333   -0.250706
            18    0       4.141913      2.019867      2.095048    -0.160306    0.047463   -0.417133
            19    0       6.073819     -0.142998      2.013452    -0.133419    0.534920   -0.118428
            20    0       6.150318      2.103011     -0.007539    -0.660088   -0.229351   -0.095557
            21    0       4.088093      0.069271      4.139991    -0.079701   -0.141409   -0.085753
            22    0       4.046401      2.043203      6.081196     0.212909   -0.062547    0.137541
            23    0       6.105653     -0.119164      6.204016    -0.146010    0.506424   -0.335431
            24    0       6.181501      2.089137      3.980419    -0.110666   -0.335534    0.336405
            25    0       3.946344      4.136000     -0.031264     0.366247   -0.582809    0.010294
            26    0       4.089579      6.092872      1.857543    -0.433385   -0.226858    0.612350
            27    0       6.194953      4.065263      2.021866    -0.302774   -0.025493   -0.109191
            28    0       6.009828      6.007366     -0.067386     0.543102   -0.070217    0.242301
            29    0       4.169302      3.947591      4.048368    -0.312471    0.361601   -0.076330
            30    0       4.067958      6.108335      6.160886    -0.103274   -0.030930   -0.460516
            31    0       6.188828      4.005712      5.962746    -0.555481    0.261436    0.268980
            32    0       5.957949      6.064508      3.945863     0.039440   -0.158925    0.528895
 Energy
       -118.392512784369
 PlusStress:  xx          yy          zz          yz          xz          xy
         3.94857     6.60371     5.76511     0.09595    -0.00041    -0.01582
 Feature   EFS_by	VASP
END_CFG

