BEGIN_CFG
 Size
    32
 Supercell
         8.095800      0.000000      0.000000
         0.000000      8.095800      0.000000
         0.000000      0.000000      8.095800
 AtomData:  id type       cartes_x      cartes_y      cartes_z           fx          fy          fz
             1    0       0.019650      0.047027      0.034172    -0.122209   -0.248211    0.033890
             2    0       0.068473      2.018923      2.010821    -0.173940    0.176161    0.091888
             3    0       2.004290     -0.013899      2.128218     0.166655    0.162453   -0.558384
             4    0       2.007206      2.020350      0.027024     0.152283    0.094615    0.032569
             5    0       0.021846     -0.071266      3.994531    -0.244161    0.323502    0.176895
             6    0       0.058463      2.048911      6.159775    -0.312978   -0.048237   -0.327077
             7    0       1.875419     -0.025858      6.152881     0.587325    0.061620   -0.355505
             8    0       2.001202      2.040541      4.088120     0.035526   -0.121157   -0.096053
             9    0      -0.049630      4.122433     -0.126936    -0.061314   -0.163135    0.531558
            10    0      -0.044669      6.031080      1.937464     0.222595    0.108324    0.207051
            11    0       2.130603      4.131199      2.010008    -0.358790   -0.236505    0.017393
            12    0       1.990419      6.069888     -0.033744     0.102774   -0.033774    0.137458
            13    0       0.057385      3.992715      4.052288    -0.080948    0.181749   -0.036098
            14    0      -0.001937      6.064195      6.001161    -0.151865    0.022691    0.101502
            15    0       1.939368      4.082848      6.095190     0.437663   -0.053642   -0.137130
            16    0       2.001783      6.153584      3.977312     0.157263   -0.484954    0.338890
            17    0       4.020076     -0.086011     -0.010636    -0.028557    0.260640    0.005594
            18    0       4.016166      2.010003      1.982786     0.145385   -0.060437    0.126239
            19    0       6.139631      0.020116      1.993638    -0.248854   -0.033271    0.155101
            20    0       6.088332      1.933384     -0.029722    -0.169354    0.279618    0.056905
            21    0       4.028580      0.030979      4.068480     0.089925   -0.085382   -0.019082
            22    0       3.946138      1.986536      6.092647     0.246597    0.104318    0.076596
            23    0       6.061961     -0.008605      6.068353    -0.006470    0.025217   -0.070629
            24    0       6.129811      2.006447      4.077146    -0.143418   -0.007739   -0.049434
            25    0       4.142900      4.032113      0.081947    -0.055429    0.031449   -0.210726
            26    0       4.045326      6.079525      2.024118     0.162687    0.064139    0.031227
            27    0       6.161881      4.093636      2.155982    -0.290820   -0.230198   -0.320358
            28    0       6.058565      6.160177     -0.027284     0.023491   -0.261076    0.031012
            29    0       4.012280      3.976262      4.042556     0.136918    0.146746    0.069318
            30    0       4.059355      5.992064      6.054221    -0.152257    0.209206   -0.000540
            31    0       6.038152      4.089084      6.055858     0.046385   -0.183437   -0.048338
            32    0       6.083471      6.106776      4.035892    -0.112110   -0.001293    0.008268
 Energy
       -118.904025256706
 PlusStress:  xx          yy          zz          yz          xz          xy
         8.57109     8.48800     8.22697    -0.36140    -0.02277    -0.02324
 Feature   EFS_by	VASP
END_CFG

