BEGIN_CFG
 Size
    32
 Supercell
         8.095800      0.000000      0.000000
         0.000000      8.095800      0.000000
         0.000000      0.000000      8.095800
 AtomData:  id type       cartes_x      cartes_y      cartes_z           fx          fy          fz
             1    0      -0.101108     -0.115796      0.008835     0.535941    0.212836    0.043412
             2    0      -0.162281      1.997193      2.141180     0.469343   -0.123664   -0.225050
             3    0       2.074609      0.034730      2.047501    -0.437799    0.250967   -0.690985
             4    0       2.107696      2.079248     -0.024557    -0.305052   -0.140436    0.551485
             5    0      -0.037288     -0.037743      4.191241     0.415435    0.635847   -0.349653
             6    0       0.043742      1.974490      6.267698    -0.285563    0.025398   -0.338930
             7    0       2.092653      0.002533      6.172223    -0.340663   -0.064920   -0.426100
             8    0       2.157819      2.022960      3.942578    -0.439063   -0.204683    0.447472
             9    0      -0.090823      4.273644     -0.074575     0.441982   -0.771127    0.329632
            10    0       0.005165      6.140539      2.031913     0.229658    0.133097   -0.041237
            11    0       1.902979      4.019835      2.112282     0.075188    0.149028   -0.475335
            12    0       2.117467      5.987997     -0.021308    -0.447398    0.107718    0.040833
            13    0      -0.043098      3.988400      4.034986     0.248701   -0.055897    0.203351
            14    0       0.169479      5.938826      5.935307    -0.187018    0.492900    0.392351
            15    0       1.967336      3.922037      6.002159     0.395012    0.275449   -0.000203
            16    0       2.046996      6.240458      3.913666    -0.275800   -0.545624    0.641510
            17    0       4.057255     -0.214833     -0.100553    -0.065616    0.613212    0.322479
            18    0       4.120876      2.080516      1.972092    -0.292919   -0.025720    0.146553
            19    0       5.944357      0.037677      1.920811     0.493896   -0.457652    0.451717
            20    0       6.031431      1.958448      0.135711     0.205588    0.458883   -0.737428
            21    0       4.102697      0.022063      3.815764     0.136804    0.144356    1.084914
            22    0       4.010977      2.013504      6.167207     0.382229   -0.007008   -0.280819
            23    0       6.102500     -0.052463      6.108638    -0.243355    0.032590   -0.076989
            24    0       6.060680      2.069553      4.195053    -0.068479   -0.276757   -0.214404
            25    0       4.062108      4.110356      0.154566     0.082952   -0.157926   -0.412758
            26    0       3.947965      6.072362      2.130478     0.591087   -0.188200   -0.653677
            27    0       6.203226      4.228237      2.042832    -0.529792   -0.512782    0.041461
            28    0       6.038385      6.077057      0.060863    -0.136281   -0.041448   -0.325176
            29    0       4.040334      4.013534      3.907507     0.172114    0.187158    0.483198
            30    0       3.972435      6.039844      5.907694     0.325452   -0.173892    0.065058
            31    0       6.065342      4.012657      6.100442    -0.196393    0.199312    0.049993
            32    0       6.287546      6.114744      4.076428    -0.950191   -0.171016   -0.046674
 Energy
       -118.012564045434
 PlusStress:  xx          yy          zz          yz          xz          xy
         6.37439     5.98316     6.26256    -0.76217    -0.56286     0.08273
 Feature   EFS_by	VASP
END_CFG

