BEGIN_CFG
 Size
    32
 Supercell
         8.095800      0.000000      0.000000
         0.000000      8.095800      0.000000
         0.000000      0.000000      8.095800
 AtomData:  id type       cartes_x      cartes_y      cartes_z           fx          fy          fz
             1    0      -0.025028      0.085016     -0.031489     0.123220   -0.455542    0.291982
             2    0       0.046463      2.033491      1.967298    -0.234201    0.113857    0.181877
             3    0       2.064539     -0.037313      2.122451    -0.095819    0.134760   -0.279937
             4    0       2.000839      2.019255      0.054660     0.133592   -0.172909   -0.235771
             5    0      -0.083543     -0.175615      3.979616     0.154861    0.547156    0.030214
             6    0      -0.041904      2.021779      6.160462    -0.128882    0.159746   -0.226063
             7    0       1.948709     -0.058310      5.962547     0.239669    0.080563    0.413212
             8    0       1.790149      1.934660      4.125681     0.410979    0.429651   -0.181960
             9    0      -0.077393      4.105589     -0.077005     0.355432   -0.285052    0.190296
            10    0       0.068981      6.018847      2.030235    -0.143505    0.099878   -0.126004
            11    0       2.098014      4.090890      1.946820    -0.274966   -0.105559    0.325434
            12    0       1.967239      6.079829     -0.014698     0.250008    0.179429    0.157867
            13    0      -0.035412      4.115759      4.224640     0.235205   -0.212487   -0.387116
            14    0       0.068345      6.078043      6.077566    -0.084604   -0.027813   -0.024292
            15    0       2.170798      4.067860      6.230432    -0.629157   -0.199782   -0.734969
            16    0       2.181840      6.064823      3.985956    -0.188712   -0.188762    0.235110
            17    0       3.967488     -0.038937      0.085730     0.116877    0.080843   -0.367632
            18    0       4.042666      2.078413      2.085039    -0.239703   -0.093662   -0.335471
            19    0       5.978386      0.002942      2.051405     0.362038   -0.111961   -0.156357
            20    0       6.010363      1.933108      0.058242    -0.056646    0.222155   -0.198298
            21    0       4.093589      0.186088      4.081407    -0.114933   -0.837288   -0.236851
            22    0       4.009709      1.923710      5.999591     0.103117    0.347194    0.559736
            23    0       6.135882     -0.012103      6.027797    -0.251094    0.181293    0.033078
            24    0       6.053277      2.144401      3.871454     0.486535   -0.168513    0.543622
            25    0       4.020493      3.948374     -0.022575     0.312083    0.281683    0.399997
            26    0       4.162799      6.043371      2.007326    -0.271664    0.027539   -0.110424
            27    0       6.117983      4.168872      1.892449    -0.009775   -0.354032    0.254064
            28    0       6.155697      6.111884     -0.120180    -0.285748    0.262763    0.437294
            29    0       4.082920      4.010332      4.038417    -0.241664    0.196565    0.125240
            30    0       4.070134      6.057998      6.111518    -0.053770    0.342761   -0.054711
            31    0       5.957985      4.081793      6.197345     0.301488   -0.418398   -0.522947
            32    0       6.077642      6.036885      4.066766    -0.280262   -0.056077   -0.000221
 Energy
       -118.468130572084
 PlusStress:  xx          yy          zz          yz          xz          xy
         4.16358     4.63085     5.69669     0.60849     0.02510     0.07132
 Feature   EFS_by	VASP
END_CFG

