BEGIN_CFG
 Size
    32
 Supercell
         8.095800      0.000000      0.000000
         0.000000      8.095800      0.000000
         0.000000      0.000000      8.095800
 AtomData:  id type       cartes_x      cartes_y      cartes_z           fx          fy          fz
             1    0      -0.095944      0.060913      0.244560     0.300459    0.031585   -0.460223
             2    0       0.036308      2.093029      2.142789    -0.293717   -0.322835   -0.299489
             3    0       2.144474     -0.129707      2.055353    -0.171655    0.572658   -0.512454
             4    0       2.056222      2.124146     -0.074553     0.105544   -1.036419    0.683430
             5    0      -0.124577     -0.005533      4.080730     0.135853    0.277951   -0.227217
             6    0       0.072074      2.153779      6.161400    -0.723178   -0.568183   -0.299564
             7    0       1.944332      0.037275      6.067544    -0.164760   -0.226626   -0.095376
             8    0       1.932534      2.081156      4.037515     0.543493   -0.262249    0.022364
             9    0       0.015004      3.944245      0.090487    -0.410552    0.555381   -0.081632
            10    0      -0.029780      6.077898      2.021797     0.182611   -0.062909    0.121991
            11    0       2.164926      3.957206      1.849386    -0.186679    0.588395    0.609819
            12    0       1.980221      6.031701     -0.051870     0.047580    0.117968   -0.017477
            13    0       0.061512      4.072954      3.995861    -0.013430    0.299951    0.217573
            14    0      -0.119057      6.156251      5.987772     0.557295   -0.396413    0.446091
            15    0       2.056586      3.926127      6.167797     0.147955    0.990108   -0.703925
            16    0       2.224723      6.234297      4.017706    -0.647466   -0.931536    0.350487
            17    0       4.007930     -0.084496     -0.255004    -0.513612    0.094710    1.174159
            18    0       4.040296      2.048884      2.057261    -0.256560   -0.041854   -0.012627
            19    0       5.801923      0.099827      1.949655     0.820303   -0.254736    0.127647
            20    0       5.959450      2.053461      0.081309     0.479217   -0.151551   -0.362197
            21    0       4.143837     -0.097064      3.987913    -0.056371    0.608068    0.477968
            22    0       3.978453      1.900066      6.073804     0.450302    0.319223   -0.502428
            23    0       6.052408     -0.088151      6.266296     0.417966    0.662043   -0.690794
            24    0       6.009179      2.056010      4.077381     0.202246   -0.178588    0.108160
            25    0       4.178302      3.967335     -0.136613    -0.275390    0.405494    0.283015
            26    0       4.194510      6.009564      1.971626    -0.803191   -0.046113    0.048880
            27    0       6.030572      4.047271      2.060033     0.300273   -0.198560   -0.066151
            28    0       6.025025      6.095281      0.106010     0.497004   -0.330777   -0.352492
            29    0       4.101939      4.052331      4.042121    -0.319002   -0.017785    0.070988
            30    0       4.177517      6.022593      6.068145    -0.460791   -0.203220   -0.154365
            31    0       6.107925      4.073938      6.005226     0.115479   -0.177952    0.177628
            32    0       6.094153      6.094941      4.016014    -0.007228   -0.115229   -0.081791
 Energy
       -117.924675020940
 PlusStress:  xx          yy          zz          yz          xz          xy
         6.04813     7.45274     6.16301    -1.17759    -0.59510    -0.99972
 Feature   EFS_by	VASP
END_CFG

