BEGIN_CFG
 Size
    32
 Supercell
         8.095800      0.000000      0.000000
         0.000000      8.095800      0.000000
         0.000000      0.000000      8.095800
 AtomData:  id type       cartes_x      cartes_y      cartes_z           fx          fy          fz
             1    0       0.013742      0.024054      0.024000    -0.377469   -0.185266   -0.341656
             2    0      -0.054337      1.978045      1.963914     0.164462    0.129524    0.199279
             3    0       1.964232      0.001922      2.004568     0.236372    0.111660    0.055378
             4    0       1.957447      2.015622     -0.150822     0.062980    0.083308    0.839266
             5    0       0.027897     -0.012821      4.079778    -0.180297   -0.179294   -0.264414
             6    0      -0.035737      1.952156      5.859431    -0.343369    0.620463    0.667499
             7    0       1.983032      0.205407      6.028366     0.364063   -0.947588   -0.014253
             8    0       2.006378      2.036695      4.028909     0.203898   -0.022042   -0.165623
             9    0      -0.009882      4.046096      0.127788     0.036177   -0.026713   -0.212828
            10    0       0.016509      6.079957      2.087209     0.142006    0.151390   -0.409683
            11    0       2.094951      4.054222      2.121205    -0.031378    0.103064   -0.296174
            12    0       1.977338      6.192254     -0.050408     0.345456   -0.243367    0.054949
            13    0       0.106757      4.060180      3.872499    -0.343625   -0.142844    0.712938
            14    0       0.037558      5.911708      6.085912    -0.027787    0.353347   -0.075736
            15    0       2.132159      3.991365      6.157060    -0.387993    0.450154   -0.280394
            16    0       2.030605      6.142308      4.145658     0.205636   -0.229158   -0.037352
            17    0       4.198537      0.064326      0.016414    -0.597640   -0.224582    0.116939
            18    0       3.976562      2.028836      2.082203     0.091118   -0.110344   -0.143423
            19    0       6.035398      0.059866      2.057320     0.187020   -0.117233   -0.209975
            20    0       6.065028      1.999813     -0.036124     0.161884    0.356295   -0.046241
            21    0       4.088782     -0.107045      3.978397    -0.278967    0.458118    0.155110
            22    0       4.075052      2.018930      6.119001     0.250828   -0.174641   -0.177379
            23    0       5.967707     -0.120122      5.983346     1.033833    0.776704    0.107203
            24    0       6.065630      2.043135      3.990680    -0.058460   -0.265682    0.296909
            25    0       3.991582      4.045810      0.115039     0.222588   -0.055234   -0.222835
            26    0       4.019612      6.057184      2.041364    -0.106448    0.071238   -0.006501
            27    0       5.975385      4.042407      2.208311     0.142457   -0.150929   -0.722844
            28    0       6.049676      5.978362      0.053169     0.225093    0.248678    0.169206
            29    0       4.105070      3.968146      4.249739    -0.435482    0.440551   -0.628840
            30    0       4.217328      6.184851      6.128366    -1.161573   -0.665938   -0.113189
            31    0       6.044077      4.192329      6.012633     0.423693   -0.583451    0.288049
            32    0       6.134334      6.099138      3.872839    -0.169074   -0.030189    0.706617
 Energy
       -118.223602483303
 PlusStress:  xx          yy          zz          yz          xz          xy
         5.29406     5.66284     4.95106     0.22018    -0.04564     0.60013
 Feature   EFS_by	VASP
END_CFG

