BEGIN_CFG
 Size
    32
 Supercell
         8.095800      0.000000      0.000000
         0.000000      8.095800      0.000000
         0.000000      0.000000      8.095800
 AtomData:  id type       cartes_x      cartes_y      cartes_z           fx          fy          fz
             1    0       0.232746     -0.101889      0.390935     0.195786    0.289592   -0.255098
             2    0       0.271264      1.921731      2.346642     0.250856    0.206550   -0.100621
             3    0       2.374192      0.007877      2.372049    -0.009950   -0.242064   -0.111142
             4    0       2.311166      1.896377      0.411993     0.005231    0.163095   -0.273703
             5    0       0.431252      0.014390      4.311973    -0.259786   -0.317427    0.190719
             6    0       0.278479      1.955271      6.301749     0.368841    0.051965    0.333258
             7    0       2.281329     -0.001656      6.448219     0.293916    0.060290   -0.082384
             8    0       2.357217      2.087976      4.352514     0.013872   -0.161307   -0.084174
             9    0       0.357363      3.900552      0.190925     0.108782    0.163900    0.229158
            10    0       0.339753      5.921450      2.192634    -0.199460    0.142055    0.436058
            11    0       2.294431      4.043004      2.359455     0.153983   -0.282643   -0.138309
            12    0       2.390268      6.112120      0.375621     0.058311   -0.171309   -0.211081
            13    0       0.291618      3.959381      4.329703    -0.064808    0.311220   -0.084917
            14    0       0.366838      6.119883      6.469630    -0.206735   -0.111634   -0.336821
            15    0       2.308071      4.112007      6.294045     0.100924   -0.120682    0.267196
            16    0       2.259729      6.000108      4.304439     0.211102    0.164564    0.046917
            17    0       4.466167     -0.011913      0.322365    -0.129223   -0.057391   -0.069962
            18    0       4.426534      1.927428      2.356202    -0.018730   -0.016747    0.092536
            19    0       6.484918     -0.065914      2.385630    -0.367681    0.038906   -0.086688
            20    0       6.394555      2.003008      0.243277    -0.026882   -0.073320   -0.020058
            21    0       4.259056     -0.055711      4.361391     0.154597    0.107160    0.122389
            22    0       4.290884      2.176792      6.315908     0.183812   -0.379195    0.204140
            23    0       6.367743      0.049111      6.353581    -0.047077   -0.348540    0.027521
            24    0       6.437619      1.976879      4.433041    -0.315411   -0.051930   -0.402082
            25    0       4.277398      3.894080      0.419445     0.116378    0.277725   -0.359667
            26    0       4.443849      5.977035      2.261338    -0.183868    0.189052    0.085663
            27    0       6.461007      3.868228      2.244125    -0.080262    0.343499    0.157168
            28    0       6.416788      5.948425      0.289665    -0.161313    0.037345   -0.043898
            29    0       4.496400      4.024759      4.246860    -0.286854    0.020390    0.129844
            30    0       4.381672      6.045687      6.382283    -0.078059   -0.055682    0.032802
            31    0       6.492573      4.076704      6.319950    -0.330917    0.001226    0.067964
            32    0       6.281401      6.118903      4.287547     0.550626   -0.178663    0.237273
 Energy
       -118.723914675521
 PlusStress:  xx          yy          zz          yz          xz          xy
         2.84792     3.26353     3.64519    -0.34304    -0.06189     0.08080
 Feature   EFS_by	VASP
END_CFG

