BEGIN_CFG
 Size
    32
 Supercell
         8.095800      0.000000      0.000000
         0.000000      8.095800      0.000000
         0.000000      0.000000      8.095800
 AtomData:  id type       cartes_x      cartes_y      cartes_z           fx          fy          fz
             1    0       0.052925      0.147203      0.329093    -0.235476   -0.441372   -1.095957
             2    0       0.047599      2.074189      2.097640     0.045806    0.008878    0.266349
             3    0       1.960036     -0.215420      2.078511     0.437774    0.691584    0.213339
             4    0       2.070871      2.104147     -0.065034     0.035409   -0.351969    0.745337
             5    0      -0.100266     -0.063910      3.913343     0.577376    0.300962    0.456954
             6    0       0.053952      2.184192      6.153155    -0.519457   -0.523847   -0.286250
             7    0       1.874061      0.038394      6.108585     0.126395   -0.176295   -0.100420
             8    0       2.137023      2.060461      4.001877    -0.178903   -0.270403    0.066105
             9    0       0.025945      4.068025      0.242803     0.011104   -0.130956   -0.837167
            10    0      -0.204381      6.038705      2.040883     0.495386    0.268028   -0.072371
            11    0       2.041045      4.089695      2.066509     0.284584    0.015528   -0.142308
            12    0       1.960226      6.085622      0.042613    -0.082706    0.059214   -0.317258
            13    0       0.012620      4.187186      3.892887    -0.138788   -0.753428    0.648663
            14    0      -0.083555      5.991850      6.013727     0.249865    0.142728    0.400099
            15    0       1.947632      3.943854      6.086695     0.383494    0.751946   -0.242157
            16    0       1.943008      6.058688      4.106182     0.330941    0.097976   -0.000223
            17    0       4.200540     -0.032774     -0.215214    -0.267549   -0.243765    0.605655
            18    0       4.240139      2.006545      1.954012    -0.808880   -0.108180    0.058267
            19    0       6.056545     -0.043127      2.109597    -0.098893    0.234222   -0.382311
            20    0       6.134364      2.003024      0.022789     0.086628    0.002945   -0.127970
            21    0       4.102378     -0.014789      4.038954    -0.395329    0.032473    0.052114
            22    0       4.061141      1.933811      6.194047    -0.028152    0.497633   -0.705642
            23    0       6.149349      0.100495      5.852902     0.056274   -0.277139    0.812885
            24    0       6.088952      2.103053      4.064191     0.091313    0.034691   -0.105047
            25    0       3.953021      4.191921     -0.047788     0.232122   -0.457587    0.296924
            26    0       4.095342      6.226850      1.902144    -0.054460   -0.580537    0.267093
            27    0       6.039084      3.981395      1.987845    -0.128108    0.337161    0.104574
            28    0       6.142659      5.988889     -0.024808    -0.214469    0.360179   -0.155640
            29    0       4.055666      4.087422      3.979410    -0.027104   -0.062699    0.079492
            30    0       4.017638      5.974004      6.029868    -0.099333    0.342291   -0.064302
            31    0       5.985939      3.958857      6.130102     0.175048    0.177819   -0.076995
            32    0       6.067176      6.008514      4.145528    -0.341913    0.021919   -0.361835
 Energy
       -117.981513870650
 PlusStress:  xx          yy          zz          yz          xz          xy
         6.08538     6.14460     6.35225    -0.35655     0.10144     0.18630
 Feature   EFS_by	VASP
END_CFG

