BEGIN_CFG
 Size
    8
 Supercell
         0.000000      5.431000      5.431000
         5.431000      0.000000      5.431000
         5.431000      5.431000      0.000000
 AtomData:  id type       cartes_x      cartes_y      cartes_z           fx          fy          fz
             1    0  -15832813.624380 22033378.395241 7272671.235020     0.000000    0.000000    0.000000
             2    0    1492.335451 138234.343370  38691.429269     0.000000    0.000000    0.000000
             3    0    1768.941180  -6961.237615  -3699.082229     0.000000    0.000000    0.000000
             4    0    -190.776453    386.339039    204.274643     0.000000    0.000000    0.000000
             5    0  12174009.516662 -26001107.954459 -8339298.668766     0.000000    0.000000    0.000000
             6    0   -1572.298549 -138435.376801 -38510.679260     0.000000    0.000000    0.000000
             7    0    -122.258359     84.964816   7844.434988     0.000000    0.000000    0.000000
             8    0  3657450.076151 3974442.316936 1062118.731263     0.000000    0.000000    0.000000
 Energy
        -65.930580781018
 PlusStress:  xx          yy          zz          yz          xz          xy
         0.00000     0.00000     0.00000     0.00000     0.00000     0.00000
 Feature   EFS_by	VASP
END_CFG

