BEGIN_CFG
 Size
    8
 Supercell
         0.000000      5.431000      5.431000
         5.431000      0.000000      5.431000
         5.431000      5.431000      0.000000
 AtomData:  id type       cartes_x      cartes_y      cartes_z           fx          fy          fz
             1    0      -0.035230     -0.404821      2.269144    -0.371915    0.480137    0.235413
             2    0       1.876999      1.308131      0.846195     0.283148   -0.185971    0.221807
             3    0       2.097054     -1.943635      2.886055    -0.068808    0.336868    0.124360
             4    0       3.547522      2.951271      1.808932     0.342272    0.549447   -0.145201
             5    0      -0.653687      1.858791      3.452749    -0.351125    0.015339   -0.165799
             6    0       3.505163      6.459489      0.050701    -0.209205   -0.475028    0.113354
             7    0       4.877059      4.198256      5.354942    -0.238668   -0.496754    0.179967
             8    0       6.528922      7.297991      5.081511     0.614300   -0.224039   -0.563901
 Energy
        -36.658931243945
 PlusStress:  xx          yy          zz          yz          xz          xy
        -8.15430    -5.16827    -7.51058    -0.19557    -2.20857     1.03218
 Feature   EFS_by	VASP
END_CFG

