BEGIN_CFG
 Size
    8
 Supercell
         5.468900      0.000000      0.000000
         0.000000      5.468900      0.000000
         0.000000      0.000000      5.468900
 AtomData:  id type       cartes_x      cartes_y      cartes_z           fx          fy          fz
             1    0       0.000000      0.000000      0.000000    -0.000018    0.000047    0.000007
             2    0       1.367220      1.367220      1.367220    -0.000027    0.000029    0.000001
             3    0       0.000000      2.734450      2.734450     0.000007   -0.000048   -0.000022
             4    0       1.367220      4.101680      4.101680     0.000034   -0.000015   -0.000003
             5    0       2.734450      0.000000      2.734450    -0.000002   -0.000021   -0.000002
             6    0       4.101680      1.367220      4.101680     0.000026    0.000004   -0.000005
             7    0       2.734450      2.734450      0.000000    -0.000018    0.000023   -0.000038
             8    0       4.101680      4.101680      1.367220    -0.000016   -0.000001   -0.000014
 Energy
        -43.398076970000
 PlusStress:  xx          yy          zz          yz          xz          xy
        -0.01244    -0.01243    -0.01244     0.00018     0.00004    -0.00003
 Feature   EFS_by	VASP
END_CFG

BEGIN_CFG
 Size
    8
 Supercell
         5.468900      0.000000      0.000000
         0.000000      5.468900      0.000000
         0.000000      0.000000      5.468900
 AtomData:  id type       cartes_x      cartes_y      cartes_z           fx          fy          fz
             1    0       0.000290      0.001190      5.463490    -0.029926    0.013880    0.105993
             2    0       1.367910      1.368240      1.370000     0.014492   -0.009151   -0.072727
             3    0       0.000560      2.733270      2.734370     0.021276    0.007999    0.010833
             4    0       1.364700      4.102130      4.105850     0.010860   -0.016064   -0.047214
             5    0       2.730850      5.466900      2.737610     0.032977   -0.016281   -0.044617
             6    0       4.102670      1.366310      4.095970    -0.045971    0.023668    0.055228
             7    0       2.736080      2.739940      5.467740     0.004642   -0.095212    0.018869
             8    0       4.103640      4.097620      1.369470    -0.008350    0.091190   -0.026402
 Energy
        -43.396773590000
 PlusStress:  xx          yy          zz          yz          xz          xy
        -0.01606    -0.01732    -0.01821    -0.02013     0.06226    -0.06398
 Feature   EFS_by	VASP
END_CFG

BEGIN_CFG
 Size
    8
 Supercell
         5.468900      0.000000      0.000000
         0.000000      5.468900      0.000000
         0.000000      0.000000      5.468900
 AtomData:  id type       cartes_x      cartes_y      cartes_z           fx          fy          fz
             1    0       0.000580      0.002390      5.458110    -0.060756    0.029502    0.212689
             2    0       1.368590      1.369250      1.372760     0.029373   -0.018917   -0.145370
             3    0       0.001120      2.732090      2.734290     0.043324    0.016818    0.021975
             4    0       1.362180      4.102580      4.110010     0.022144   -0.033890   -0.095285
             5    0       2.727260      5.464890      2.740750     0.065753   -0.032300   -0.089492
             6    0       4.103640      1.365400      4.090290    -0.092091    0.046621    0.110768
             7    0       2.737720      2.745410      5.466590     0.009345   -0.190395    0.037150
             8    0       4.105610      4.093600      1.371700    -0.017078    0.182517   -0.052405
 Energy
        -43.392903330000
 PlusStress:  xx          yy          zz          yz          xz          xy
        -0.00737    -0.01195    -0.01537    -0.03916     0.12029    -0.12702
 Feature   EFS_by	VASP
END_CFG

BEGIN_CFG
 Size
    8
 Supercell
         5.468900      0.000000      0.000000
         0.000000      5.468900      0.000000
         0.000000      0.000000      5.468900
 AtomData:  id type       cartes_x      cartes_y      cartes_z           fx          fy          fz
             1    0       0.000840      0.003590      5.452810    -0.090700    0.045430    0.316209
             2    0       1.369290      1.370250      1.375460     0.043813   -0.028466   -0.215373
             3    0       0.001700      2.730910      2.734220     0.064726    0.024955    0.032709
             4    0       1.359670      4.103020      4.114140     0.033811   -0.051416   -0.142310
             5    0       2.723690      5.462860      2.743860     0.097471   -0.046989   -0.132511
             6    0       4.104590      1.364510      4.084640    -0.136436    0.068053    0.163988
             7    0       2.739360      2.750800      5.465450     0.014013   -0.281830    0.055545
             8    0       4.107570      4.089650      1.373910    -0.026722    0.270255   -0.078241
 Energy
        -43.386581550000
 PlusStress:  xx          yy          zz          yz          xz          xy
         0.00822    -0.00213    -0.00983    -0.05749     0.17468    -0.19006
 Feature   EFS_by	VASP
END_CFG

BEGIN_CFG
 Size
    8
 Supercell
         5.468900      0.000000      0.000000
         0.000000      5.468900      0.000000
         0.000000      0.000000      5.468900
 AtomData:  id type       cartes_x      cartes_y      cartes_z           fx          fy          fz
             1    0       0.001070      0.004810      5.447620    -0.120768    0.062441    0.418388
             2    0       1.370000      1.371240      1.378090     0.058214   -0.038423   -0.283903
             3    0       0.002300      2.729750      2.734160     0.086238    0.033753    0.043456
             4    0       1.357160      4.103450      4.118220     0.045922   -0.070165   -0.189354
             5    0       2.720160      5.460830      2.746930     0.128642   -0.060804   -0.175088
             6    0       4.105490      1.363650      4.079050    -0.180010    0.088347    0.216840
             7    0       2.741000      2.756100      5.464330     0.018491   -0.371567    0.073066
             8    0       4.109520      4.085780      1.376100    -0.036718    0.356419   -0.103374
 Energy
        -43.377977810000
 PlusStress:  xx          yy          zz          yz          xz          xy
         0.02823     0.01031    -0.00330    -0.07497     0.22553    -0.25232
 Feature   EFS_by	VASP
END_CFG

BEGIN_CFG
 Size
    8
 Supercell
         5.468900      0.000000      0.000000
         0.000000      5.468900      0.000000
         0.000000      0.000000      5.468900
 AtomData:  id type       cartes_x      cartes_y      cartes_z           fx          fy          fz
             1    0       0.001260      0.006060      5.442560    -0.149888    0.079746    0.516862
             2    0       1.370730      1.372220      1.380620     0.072206   -0.048341   -0.349431
             3    0       0.002930      2.728590      2.734120     0.106867    0.042076    0.053489
             4    0       1.354670      4.103840      4.122240     0.058421   -0.088728   -0.234817
             5    0       2.716670      5.458760      2.749940     0.158683   -0.073049   -0.216079
             6    0       4.106330      1.362810      4.073530    -0.221681    0.106897    0.267656
             7    0       2.742650      2.761280      5.463230     0.022806   -0.457321    0.090420
             8    0       4.111460      4.082030      1.378260    -0.047414    0.438691   -0.128021
 Energy
        -43.367313530000
 PlusStress:  xx          yy          zz          yz          xz          xy
         0.05321     0.02606     0.00500    -0.09124     0.27183    -0.31298
 Feature   EFS_by	VASP
END_CFG

BEGIN_CFG
 Size
    8
 Supercell
         5.468900      0.000000      0.000000
         0.000000      5.468900      0.000000
         0.000000      0.000000      5.468900
 AtomData:  id type       cartes_x      cartes_y      cartes_z           fx          fy          fz
             1    0       0.001400      0.007330      5.437670    -0.178442    0.097565    0.612027
             2    0       1.371490      1.373190      1.383050     0.085934   -0.058393   -0.412258
             3    0       0.003600      2.727440      2.734090     0.126984    0.050646    0.063046
             4    0       1.352200      4.104210      4.126190     0.071114   -0.107769   -0.279035
             5    0       2.713220      5.456670      2.752890     0.187689   -0.084071   -0.255924
             6    0       4.107090      1.362000      4.068080    -0.261802    0.123973    0.317070
             7    0       2.744310      2.766320      5.462160     0.026885   -0.539685    0.106862
             8    0       4.113390      4.078430      1.380370    -0.058343    0.517726   -0.151724
 Energy
        -43.354848570000
 PlusStress:  xx          yy          zz          yz          xz          xy
         0.08214     0.04426     0.01431    -0.10642     0.31394    -0.37168
 Feature   EFS_by	VASP
END_CFG

BEGIN_CFG
 Size
    8
 Supercell
         5.468900      0.000000      0.000000
         0.000000      5.468900      0.000000
         0.000000      0.000000      5.468900
 AtomData:  id type       cartes_x      cartes_y      cartes_z           fx          fy          fz
             1    0       0.001480      0.008640      5.432970    -0.205988    0.115499    0.702847
             2    0       1.372280      1.374140      1.385330     0.099201   -0.068499   -0.471721
             3    0       0.004310      2.726310      2.734090     0.146101    0.058982    0.071692
             4    0       1.349740      4.104550      4.130060     0.084047   -0.126634   -0.321197
             5    0       2.709820      5.454550      2.755750     0.215470   -0.093450   -0.294297
             6    0       4.107760      1.361240      4.062730    -0.299923    0.139292    0.364586
             7    0       2.745990      2.771190      5.461120     0.030708   -0.617718    0.122640
             8    0       4.115310      4.074990      1.382440    -0.069603    0.592524   -0.174552
 Energy
        -43.340870820000
 PlusStress:  xx          yy          zz          yz          xz          xy
         0.11430     0.06456     0.02444    -0.12024     0.35154    -0.42780
 Feature   EFS_by	VASP
END_CFG

BEGIN_CFG
 Size
    8
 Supercell
         5.468900      0.000000      0.000000
         0.000000      5.468900      0.000000
         0.000000      0.000000      5.468900
 AtomData:  id type       cartes_x      cartes_y      cartes_z           fx          fy          fz
             1    0       0.001480      0.010000      5.428480    -0.232500    0.133439    0.789288
             2    0       1.373110      1.375070      1.387470     0.112028   -0.078692   -0.527832
             3    0       0.005090      2.725200      2.734110     0.164228    0.067394    0.079493
             4    0       1.347290      4.104840      4.133840     0.097034   -0.145481   -0.361304
             5    0       2.706480      5.452370      2.758540     0.242091   -0.101312   -0.331351
             6    0       4.108340      1.360520      4.057470    -0.336075    0.152998    0.410486
             7    0       2.747690      2.775870      5.460120     0.034199   -0.691592    0.137461
             8    0       4.117210      4.071730      1.384470    -0.080967    0.663251   -0.196246
 Energy
        -43.325684760000
 PlusStress:  xx          yy          zz          yz          xz          xy
         0.14884     0.08632     0.03483    -0.13282     0.38493    -0.48104
 Feature   EFS_by	VASP
END_CFG

BEGIN_CFG
 Size
    8
 Supercell
         5.468900      0.000000      0.000000
         0.000000      5.468900      0.000000
         0.000000      0.000000      5.468900
 AtomData:  id type       cartes_x      cartes_y      cartes_z           fx          fy          fz
             1    0       0.001410      0.011420      5.424230    -0.257589    0.151057    0.870626
             2    0       1.373990      1.375980      1.389450     0.124349   -0.088868   -0.580123
             3    0       0.005920      2.724090      2.734150     0.181040    0.075531    0.086168
             4    0       1.344860      4.105080      4.137530     0.110043   -0.163847   -0.398725
             5    0       2.703190      5.450150      2.761230     0.267367   -0.107433   -0.366890
             6    0       4.108810      1.359850      4.052300    -0.369992    0.164932    0.454415
             7    0       2.749420      2.780360      5.459160     0.037235   -0.760661    0.151402
             8    0       4.119100      4.068670      1.386440    -0.092421    0.729286   -0.216842
 Energy
        -43.309602180000
 PlusStress:  xx          yy          zz          yz          xz          xy
         0.18496     0.10902     0.04522    -0.14396     0.41391    -0.53074
 Feature   EFS_by	VASP
END_CFG
