BEGIN_CFG
 Size
    8
 Supercell
         5.468900      0.000000      0.000000
         0.000000      5.468900      0.000000
         0.000000      0.000000      5.468900
 AtomData:  id type       cartes_x      cartes_y      cartes_z           fx          fy          fz
             1    0       0.000000      0.000000      0.000000    -0.000018    0.000047    0.000007
             2    0       1.367220      1.367220      1.367220    -0.000027    0.000029    0.000001
             3    0       0.000000      2.734450      2.734450     0.000007   -0.000048   -0.000022
             4    0       1.367220      4.101680      4.101680     0.000034   -0.000015   -0.000003
             5    0       2.734450      0.000000      2.734450    -0.000002   -0.000021   -0.000002
             6    0       4.101680      1.367220      4.101680     0.000026    0.000004   -0.000005
             7    0       2.734450      2.734450      0.000000    -0.000018    0.000023   -0.000038
             8    0       4.101680      4.101680      1.367220    -0.000016   -0.000001   -0.000014
 Energy
        -43.398076970000
 PlusStress:  xx          yy          zz          yz          xz          xy
        -0.01244    -0.01243    -0.01244     0.00018     0.00004    -0.00003
 Feature   EFS_by	VASP
END_CFG

BEGIN_CFG
 Size
    8
 Supercell
         5.468900      0.000000      0.000000
         0.000000      5.468900      0.000000
         0.000000      0.000000      5.468900
 AtomData:  id type       cartes_x      cartes_y      cartes_z           fx          fy          fz
             1    0       0.000290      0.001190      5.463490    -0.029926    0.013880    0.105993
             2    0       1.367910      1.368240      1.370000     0.014492   -0.009151   -0.072727
             3    0       0.000560      2.733270      2.734370     0.021276    0.007999    0.010833
             4    0       1.364700      4.102130      4.105850     0.010860   -0.016064   -0.047214
             5    0       2.730850      5.466900      2.737610     0.032977   -0.016281   -0.044617
             6    0       4.102670      1.366310      4.095970    -0.045971    0.023668    0.055228
             7    0       2.736080      2.739940      5.467740     0.004642   -0.095212    0.018869
             8    0       4.103640      4.097620      1.369470    -0.008350    0.091190   -0.026402
 Energy
        -43.396773590000
 PlusStress:  xx          yy          zz          yz          xz          xy
        -0.01606    -0.01732    -0.01821    -0.02013     0.06226    -0.06398
 Feature   EFS_by	VASP
END_CFG

BEGIN_CFG
 Size
    8
 Supercell
         5.468900      0.000000      0.000000
         0.000000      5.468900      0.000000
         0.000000      0.000000      5.468900
 AtomData:  id type       cartes_x      cartes_y      cartes_z           fx          fy          fz
             1    0       0.000580      0.002390      5.458110    -0.060756    0.029502    0.212689
             2    0       1.368590      1.369250      1.372760     0.029373   -0.018917   -0.145370
             3    0       0.001120      2.732090      2.734290     0.043324    0.016818    0.021975
             4    0       1.362180      4.102580      4.110010     0.022144   -0.033890   -0.095285
             5    0       2.727260      5.464890      2.740750     0.065753   -0.032300   -0.089492
             6    0       4.103640      1.365400      4.090290    -0.092091    0.046621    0.110768
             7    0       2.737720      2.745410      5.466590     0.009345   -0.190395    0.037150
             8    0       4.105610      4.093600      1.371700    -0.017078    0.182517   -0.052405
 Energy
        -43.392903330000
 PlusStress:  xx          yy          zz          yz          xz          xy
        -0.00737    -0.01195    -0.01537    -0.03916     0.12029    -0.12702
 Feature   EFS_by	VASP
END_CFG

BEGIN_CFG
 Size
    8
 Supercell
         5.468900      0.000000      0.000000
         0.000000      5.468900      0.000000
         0.000000      0.000000      5.468900
 AtomData:  id type       cartes_x      cartes_y      cartes_z           fx          fy          fz
             1    0       0.000840      0.003590      5.452810    -0.090700    0.045430    0.316209
             2    0       1.369290      1.370250      1.375460     0.043813   -0.028466   -0.215373
             3    0       0.001700      2.730910      2.734220     0.064726    0.024955    0.032709
             4    0       1.359670      4.103020      4.114140     0.033811   -0.051416   -0.142310
             5    0       2.723690      5.462860      2.743860     0.097471   -0.046989   -0.132511
             6    0       4.104590      1.364510      4.084640    -0.136436    0.068053    0.163988
             7    0       2.739360      2.750800      5.465450     0.014013   -0.281830    0.055545
             8    0       4.107570      4.089650      1.373910    -0.026722    0.270255   -0.078241
 Energy
        -43.386581550000
 PlusStress:  xx          yy          zz          yz          xz          xy
         0.00822    -0.00213    -0.00983    -0.05749     0.17468    -0.19006
 Feature   EFS_by	VASP
END_CFG

BEGIN_CFG
 Size
    8
 Supercell
         5.468900      0.000000      0.000000
         0.000000      5.468900      0.000000
         0.000000      0.000000      5.468900
 AtomData:  id type       cartes_x      cartes_y      cartes_z           fx          fy          fz
             1    0       0.001070      0.004810      5.447620    -0.120768    0.062441    0.418388
             2    0       1.370000      1.371240      1.378090     0.058214   -0.038423   -0.283903
             3    0       0.002300      2.729750      2.734160     0.086238    0.033753    0.043456
             4    0       1.357160      4.103450      4.118220     0.045922   -0.070165   -0.189354
             5    0       2.720160      5.460830      2.746930     0.128642   -0.060804   -0.175088
             6    0       4.105490      1.363650      4.079050    -0.180010    0.088347    0.216840
             7    0       2.741000      2.756100      5.464330     0.018491   -0.371567    0.073066
             8    0       4.109520      4.085780      1.376100    -0.036718    0.356419   -0.103374
 Energy
        -43.377977810000
 PlusStress:  xx          yy          zz          yz          xz          xy
         0.02823     0.01031    -0.00330    -0.07497     0.22553    -0.25232
 Feature   EFS_by	VASP
END_CFG

BEGIN_CFG
 Size
    8
 Supercell
         5.468900      0.000000      0.000000
         0.000000      5.468900      0.000000
         0.000000      0.000000      5.468900
 AtomData:  id type       cartes_x      cartes_y      cartes_z           fx          fy          fz
             1    0       0.001260      0.006060      5.442560    -0.149888    0.079746    0.516862
             2    0       1.370730      1.372220      1.380620     0.072206   -0.048341   -0.349431
             3    0       0.002930      2.728590      2.734120     0.106867    0.042076    0.053489
             4    0       1.354670      4.103840      4.122240     0.058421   -0.088728   -0.234817
             5    0       2.716670      5.458760      2.749940     0.158683   -0.073049   -0.216079
             6    0       4.106330      1.362810      4.073530    -0.221681    0.106897    0.267656
             7    0       2.742650      2.761280      5.463230     0.022806   -0.457321    0.090420
             8    0       4.111460      4.082030      1.378260    -0.047414    0.438691   -0.128021
 Energy
        -43.367313530000
 PlusStress:  xx          yy          zz          yz          xz          xy
         0.05321     0.02606     0.00500    -0.09124     0.27183    -0.31298
 Feature   EFS_by	VASP
END_CFG

BEGIN_CFG
 Size
    8
 Supercell
         5.468900      0.000000      0.000000
         0.000000      5.468900      0.000000
         0.000000      0.000000      5.468900
 AtomData:  id type       cartes_x      cartes_y      cartes_z           fx          fy          fz
             1    0       0.001400      0.007330      5.437670    -0.178442    0.097565    0.612027
             2    0       1.371490      1.373190      1.383050     0.085934   -0.058393   -0.412258
             3    0       0.003600      2.727440      2.734090     0.126984    0.050646    0.063046
             4    0       1.352200      4.104210      4.126190     0.071114   -0.107769   -0.279035
             5    0       2.713220      5.456670      2.752890     0.187689   -0.084071   -0.255924
             6    0       4.107090      1.362000      4.068080    -0.261802    0.123973    0.317070
             7    0       2.744310      2.766320      5.462160     0.026885   -0.539685    0.106862
             8    0       4.113390      4.078430      1.380370    -0.058343    0.517726   -0.151724
 Energy
        -43.354848570000
 PlusStress:  xx          yy          zz          yz          xz          xy
         0.08214     0.04426     0.01431    -0.10642     0.31394    -0.37168
 Feature   EFS_by	VASP
END_CFG

BEGIN_CFG
 Size
    8
 Supercell
         5.468900      0.000000      0.000000
         0.000000      5.468900      0.000000
         0.000000      0.000000      5.468900
 AtomData:  id type       cartes_x      cartes_y      cartes_z           fx          fy          fz
             1    0       0.001480      0.008640      5.432970    -0.205988    0.115499    0.702847
             2    0       1.372280      1.374140      1.385330     0.099201   -0.068499   -0.471721
             3    0       0.004310      2.726310      2.734090     0.146101    0.058982    0.071692
             4    0       1.349740      4.104550      4.130060     0.084047   -0.126634   -0.321197
             5    0       2.709820      5.454550      2.755750     0.215470   -0.093450   -0.294297
             6    0       4.107760      1.361240      4.062730    -0.299923    0.139292    0.364586
             7    0       2.745990      2.771190      5.461120     0.030708   -0.617718    0.122640
             8    0       4.115310      4.074990      1.382440    -0.069603    0.592524   -0.174552
 Energy
        -43.340870820000
 PlusStress:  xx          yy          zz          yz          xz          xy
         0.11430     0.06456     0.02444    -0.12024     0.35154    -0.42780
 Feature   EFS_by	VASP
END_CFG

BEGIN_CFG
 Size
    8
 Supercell
         5.468900      0.000000      0.000000
         0.000000      5.468900      0.000000
         0.000000      0.000000      5.468900
 AtomData:  id type       cartes_x      cartes_y      cartes_z           fx          fy          fz
             1    0       0.001480      0.010000      5.428480    -0.232500    0.133439    0.789288
             2    0       1.373110      1.375070      1.387470     0.112028   -0.078692   -0.527832
             3    0       0.005090      2.725200      2.734110     0.164228    0.067394    0.079493
             4    0       1.347290      4.104840      4.133840     0.097034   -0.145481   -0.361304
             5    0       2.706480      5.452370      2.758540     0.242091   -0.101312   -0.331351
             6    0       4.108340      1.360520      4.057470    -0.336075    0.152998    0.410486
             7    0       2.747690      2.775870      5.460120     0.034199   -0.691592    0.137461
             8    0       4.117210      4.071730      1.384470    -0.080967    0.663251   -0.196246
 Energy
        -43.325684760000
 PlusStress:  xx          yy          zz          yz          xz          xy
         0.14884     0.08632     0.03483    -0.13282     0.38493    -0.48104
 Feature   EFS_by	VASP
END_CFG

BEGIN_CFG
 Size
    8
 Supercell
         5.468900      0.000000      0.000000
         0.000000      5.468900      0.000000
         0.000000      0.000000      5.468900
 AtomData:  id type       cartes_x      cartes_y      cartes_z           fx          fy          fz
             1    0       0.001410      0.011420      5.424230    -0.257589    0.151057    0.870626
             2    0       1.373990      1.375980      1.389450     0.124349   -0.088868   -0.580123
             3    0       0.005920      2.724090      2.734150     0.181040    0.075531    0.086168
             4    0       1.344860      4.105080      4.137530     0.110043   -0.163847   -0.398725
             5    0       2.703190      5.450150      2.761230     0.267367   -0.107433   -0.366890
             6    0       4.108810      1.359850      4.052300    -0.369992    0.164932    0.454415
             7    0       2.749420      2.780360      5.459160     0.037235   -0.760661    0.151402
             8    0       4.119100      4.068670      1.386440    -0.092421    0.729286   -0.216842
 Energy
        -43.309602180000
 PlusStress:  xx          yy          zz          yz          xz          xy
         0.18496     0.10902     0.04522    -0.14396     0.41391    -0.53074
 Feature   EFS_by	VASP
END_CFG

BEGIN_CFG
 Size
    8
 Supercell
         5.468900      0.000000      0.000000
         0.000000      5.468900      0.000000
         0.000000      0.000000      5.468900
 AtomData:  id type       cartes_x      cartes_y      cartes_z           fx          fy          fz
             1    0       0.001250      0.012910      5.420230    -0.281269    0.168179    0.946806
             2    0       1.374920      1.376880      1.391250     0.136114   -0.099095   -0.628655
             3    0       0.006820      2.723000      2.734230     0.196468    0.083685    0.091665
             4    0       1.342440      4.105270      4.141130     0.122967   -0.181796   -0.433419
             5    0       2.699960      5.447860      2.763820     0.291406   -0.111853   -0.401121
             6    0       4.109150      1.359220      4.047230    -0.401716    0.175214    0.496609
             7    0       2.751180      2.784630      5.458240     0.039818   -0.825148    0.164270
             8    0       4.120980      4.065830      1.388360    -0.103776    0.790816   -0.236104
 Energy
        -43.292933680000
 PlusStress:  xx          yy          zz          yz          xz          xy
         0.22178     0.13208     0.05513    -0.15366     0.43882    -0.57659
 Feature   EFS_by	VASP
END_CFG

BEGIN_CFG
 Size
    8
 Supercell
         5.468900      0.000000      0.000000
         0.000000      5.468900      0.000000
         0.000000      0.000000      5.468900
 AtomData:  id type       cartes_x      cartes_y      cartes_z           fx          fy          fz
             1    0       0.000990      0.014480      5.416500    -0.303210    0.184490    1.017220
             2    0       1.375910      1.377750      1.392860     0.147262   -0.109269   -0.673069
             3    0       0.007810      2.721920      2.734340     0.210255    0.091547    0.095722
             4    0       1.340020      4.105400      4.144630     0.135753   -0.198879   -0.464848
             5    0       2.696780      5.445490      2.766320     0.314076   -0.114402   -0.433824
             6    0       4.109360      1.358650      4.042250    -0.430993    0.183790    0.536821
             7    0       2.752980      2.788690      5.457370     0.041877   -0.884600    0.176139
             8    0       4.122860      4.063220      1.390230    -0.115039    0.847307   -0.254125
 Energy
        -43.275982870000
 PlusStress:  xx          yy          zz          yz          xz          xy
         0.25841     0.15499     0.06414    -0.16177     0.45963    -0.61808
 Feature   EFS_by	VASP
END_CFG

BEGIN_CFG
 Size
    8
 Supercell
         5.468900      0.000000      0.000000
         0.000000      5.468900      0.000000
         0.000000      0.000000      5.468900
 AtomData:  id type       cartes_x      cartes_y      cartes_z           fx          fy          fz
             1    0       0.000610      0.016140      5.413040    -0.323356    0.199829    1.081948
             2    0       1.376970      1.378600      1.394260     0.157765   -0.119440   -0.713466
             3    0       0.008890      2.720850      2.734490     0.222349    0.099350    0.098341
             4    0       1.337600      4.105470      4.148030     0.148253   -0.215097   -0.493002
             5    0       2.693640      5.443040      2.768720     0.335496   -0.115190   -0.465246
             6    0       4.109420      1.358130      4.037370    -0.457878    0.190789    0.575317
             7    0       2.754830      2.792520      5.456530     0.043395   -0.939197    0.186801
             8    0       4.124730      4.060850      1.392050    -0.125984    0.898957   -0.270681
 Energy
        -43.259041510000
 PlusStress:  xx          yy          zz          yz          xz          xy
         0.29405     0.17703     0.07182    -0.16846     0.47664    -0.65497
 Feature   EFS_by	VASP
END_CFG

BEGIN_CFG
 Size
    8
 Supercell
         5.468900      0.000000      0.000000
         0.000000      5.468900      0.000000
         0.000000      0.000000      5.468900
 AtomData:  id type       cartes_x      cartes_y      cartes_z           fx          fy          fz
             1    0       0.000120      0.017920      5.409880    -0.341427    0.213836    1.140417
             2    0       1.378120      1.379430      1.395460     0.167546   -0.129524   -0.749541
             3    0       0.010080      2.719790      2.734670     0.232532    0.106770    0.099312
             4    0       1.335170      4.105460      4.151350     0.160378   -0.230044   -0.517373
             5    0       2.690540      5.440490      2.771020     0.355552   -0.114010   -0.495251
             6    0       4.109330      1.357660      4.032560    -0.482172    0.196166    0.611897
             7    0       2.756740      2.796120      5.455740     0.044260   -0.988590    0.196375
             8    0       4.126610      4.058740      1.393820    -0.136629    0.945373   -0.285847
 Energy
        -43.242387440000
 PlusStress:  xx          yy          zz          yz          xz          xy
         0.32791     0.19773     0.07787    -0.17352     0.48991    -0.68670
 Feature   EFS_by	VASP
END_CFG

BEGIN_CFG
 Size
    8
 Supercell
         5.468900      0.000000      0.000000
         0.000000      5.468900      0.000000
         0.000000      0.000000      5.468900
 AtomData:  id type       cartes_x      cartes_y      cartes_z           fx          fy          fz
             1    0       5.468390      0.019820      5.407020    -0.357376    0.226382    1.192706
             2    0       1.379350      1.380240      1.396430     0.176580   -0.139594   -0.781341
             3    0       0.011380      2.718740      2.734900     0.240696    0.114084    0.098617
             4    0       1.332720      4.105370      4.154590     0.172063   -0.243692   -0.537936
             5    0       2.687470      5.437820      2.773210     0.374356   -0.110950   -0.524037
             6    0       4.109070      1.357240      4.027820    -0.503891    0.200051    0.646770
             7    0       2.758720      2.799480      5.455000     0.044439   -1.032984    0.204681
             8    0       4.128490      4.056890      1.395550    -0.146799    0.986678   -0.299441
 Energy
        -43.226282440000
 PlusStress:  xx          yy          zz          yz          xz          xy
         0.35925     0.21643     0.08176    -0.17701     0.49973    -0.71303
 Feature   EFS_by	VASP
END_CFG

BEGIN_CFG
 Size
    8
 Supercell
         5.468900      0.000000      0.000000
         0.000000      5.468900      0.000000
         0.000000      0.000000      5.468900
 AtomData:  id type       cartes_x      cartes_y      cartes_z           fx          fy          fz
             1    0       5.467620      0.021870      5.404470    -0.370896    0.237108    1.238300
             2    0       1.380690      1.381030      1.397150     0.184765   -0.149553   -0.808566
             3    0       0.012810      2.717680      2.735160     0.246624    0.120942    0.096040
             4    0       1.330250      4.105190      4.157760     0.183264   -0.255656   -0.554235
             5    0       2.684430      5.435020      2.775290     0.391841   -0.105815   -0.551476
             6    0       4.108620      1.356890      4.023130    -0.522825    0.202390    0.679797
             7    0       2.760790      2.802600      5.454300     0.043816   -1.072002    0.211771
             8    0       4.130390      4.055320      1.397230    -0.156555    1.022523   -0.311587
 Energy
        -43.210973210000
 PlusStress:  xx          yy          zz          yz          xz          xy
         0.38730     0.23254     0.08311    -0.17875     0.50621    -0.73342
 Feature   EFS_by	VASP
END_CFG

BEGIN_CFG
 Size
    8
 Supercell
         5.468900      0.000000      0.000000
         0.000000      5.468900      0.000000
         0.000000      0.000000      5.468900
 AtomData:  id type       cartes_x      cartes_y      cartes_z           fx          fy          fz
             1    0       5.466680      0.024080      5.402250    -0.381867    0.245842    1.277208
             2    0       1.382150      1.381800      1.397630     0.192081   -0.159477   -0.831294
             3    0       0.014390      2.716630      2.735480     0.250174    0.127627    0.091492
             4    0       1.327740      4.104910      4.160860     0.193889   -0.265861   -0.566274
             5    0       2.681400      5.432070      2.777270     0.408087   -0.098678   -0.577761
             6    0       4.107960      1.356580      4.018500    -0.539003    0.203336    0.711172
             7    0       2.762960      2.805470      5.453640     0.042381   -1.105849    0.217514
             8    0       4.132310      4.054050      1.398870    -0.165678    1.052996   -0.322054
 Energy
        -43.196689960000
 PlusStress:  xx          yy          zz          yz          xz          xy
         0.41118     0.24541     0.08152    -0.17873     0.50950    -0.74759
 Feature   EFS_by	VASP
END_CFG

BEGIN_CFG
 Size
    8
 Supercell
         5.468900      0.000000      0.000000
         0.000000      5.468900      0.000000
         0.000000      0.000000      5.468900
 AtomData:  id type       cartes_x      cartes_y      cartes_z           fx          fy          fz
             1    0       5.465560      0.026490      5.400380    -0.390004    0.252209    1.308857
             2    0       1.383750      1.382560      1.397840     0.198367   -0.169251   -0.849140
             3    0       0.016130      2.715570      2.735830     0.251137    0.133730    0.084808
             4    0       1.325180      4.104530      4.163920     0.203882   -0.273901   -0.573550
             5    0       2.678360      5.428940      2.779140     0.422988   -0.089312   -0.602709
             6    0       4.107090      1.356340      4.013890    -0.552123    0.202834    0.740686
             7    0       2.765250      2.808090      5.453030     0.039999   -1.134117    0.221946
             8    0       4.134270      4.053080      1.400470    -0.174232    1.077695   -0.330938
 Energy
        -43.183648110000
 PlusStress:  xx          yy          zz          yz          xz          xy
         0.43008     0.25459     0.07664    -0.17680     0.50965    -0.75503
 Feature   EFS_by	VASP
END_CFG

BEGIN_CFG
 Size
    8
 Supercell
         5.468900      0.000000      0.000000
         0.000000      5.468900      0.000000
         0.000000      0.000000      5.468900
 AtomData:  id type       cartes_x      cartes_y      cartes_z           fx          fy          fz
             1    0       5.464250      0.029120      5.398860    -0.395223    0.256052    1.333203
             2    0       1.385510      1.383290      1.397760     0.203639   -0.178978   -0.862129
             3    0       0.018050      2.714500      2.736240     0.249345    0.139548    0.075884
             4    0       1.322560      4.104030      4.166930     0.213166   -0.279655   -0.576013
             5    0       2.675320      5.425610      2.780900     0.436628   -0.077747   -0.626508
             6    0       4.105980      1.356150      4.009300    -0.562151    0.200970    0.768574
             7    0       2.767680      2.810450      5.452470     0.036656   -1.156858    0.224978
             8    0       4.136270      4.052450      1.402040    -0.182049    1.096636   -0.338017
 Energy
        -43.172046810000
 PlusStress:  xx          yy          zz          yz          xz          xy
         0.44327     0.25927     0.06795    -0.17297     0.50683    -0.75543
 Feature   EFS_by	VASP
END_CFG

BEGIN_CFG
 Size
    8
 Supercell
         5.468900      0.000000      0.000000
         0.000000      5.468900      0.000000
         0.000000      0.000000      5.468900
 AtomData:  id type       cartes_x      cartes_y      cartes_z           fx          fy          fz
             1    0       5.462710      0.031990      5.397730    -0.397121    0.256982    1.349528
             2    0       1.387440      1.384000      1.397360     0.207695   -0.188504   -0.869808
             3    0       0.020170      2.713420      2.736700     0.244513    0.144614    0.064580
             4    0       1.319850      4.103400      4.169920     0.221748   -0.282730   -0.573163
             5    0       2.672240      5.422050      2.782540     0.448941   -0.063760   -0.648922
             6    0       4.104600      1.356030      4.004700    -0.568718    0.197720    0.794540
             7    0       2.770260      2.812540      5.451950     0.032170   -1.173651    0.226577
             8    0       4.138320      4.052160      1.403590    -0.189180    1.109282   -0.343361
 Energy
        -43.162067600000
 PlusStress:  xx          yy          zz          yz          xz          xy
         0.44995     0.25886     0.05509    -0.16699     0.50106    -0.74827
 Feature   EFS_by	VASP
END_CFG

BEGIN_CFG
 Size
    8
 Supercell
         5.468900      0.000000      0.000000
         0.000000      5.468900      0.000000
         0.000000      0.000000      5.468900
 AtomData:  id type       cartes_x      cartes_y      cartes_z           fx          fy          fz
             1    0       5.460940      0.035140      5.397010    -0.395723    0.254816    1.357824
             2    0       1.389570      1.384690      1.396640     0.210499   -0.198010   -0.872058
             3    0       0.022520      2.712320      2.737210     0.236449    0.149246    0.050727
             4    0       1.317040      4.102630      4.172900     0.229611   -0.282973   -0.565014
             5    0       2.669120      5.418250      2.784050     0.459962   -0.047352   -0.670146
             6    0       4.102930      1.355960      4.000090    -0.571792    0.193099    0.818722
             7    0       2.773020      2.814360      5.451480     0.026516   -1.184459    0.226705
             8    0       4.140450      4.052250      1.405120    -0.195486    1.115605   -0.346781
 Energy
        -43.153869770000
 PlusStress:  xx          yy          zz          yz          xz          xy
         0.44937     0.25262     0.03756    -0.15873     0.49234    -0.73322
 Feature   EFS_by	VASP
END_CFG

BEGIN_CFG
 Size
    8
 Supercell
         5.468900      0.000000      0.000000
         0.000000      5.468900      0.000000
         0.000000      0.000000      5.468900
 AtomData:  id type       cartes_x      cartes_y      cartes_z           fx          fy          fz
             1    0       5.458900      0.038610      5.396710    -0.390548    0.249191    1.357170
             2    0       1.391930      1.385370      1.395550     0.211758   -0.207297   -0.868408
             3    0       0.025130      2.711190      2.737780     0.224808    0.152902    0.034229
             4    0       1.314120      4.101710      4.175890     0.236748   -0.279942   -0.551017
             5    0       2.665950      5.414150      2.785440     0.469499   -0.028254   -0.689761
             6    0       4.100930      1.355960      3.995440    -0.570855    0.187170    0.840838
             7    0       2.775990      2.815870      5.451060     0.019551   -1.188715    0.225222
             8    0       4.142650      4.052740      1.406630    -0.200977    1.114879   -0.348314
 Energy
        -43.147587340000
 PlusStress:  xx          yy          zz          yz          xz          xy
         0.44064     0.23994     0.01513    -0.14805     0.48074    -0.70962
 Feature   EFS_by	VASP
END_CFG

BEGIN_CFG
 Size
    8
 Supercell
         5.468900      0.000000      0.000000
         0.000000      5.468900      0.000000
         0.000000      0.000000      5.468900
 AtomData:  id type       cartes_x      cartes_y      cartes_z           fx          fy          fz
             1    0       5.456570      0.042430      5.396880    -0.381598    0.239898    1.347502
             2    0       1.394530      1.386010      1.394070     0.211478   -0.216521   -0.858604
             3    0       0.028000      2.710030      2.738400     0.209384    0.155885    0.014875
             4    0       1.311060      4.100620      4.178910     0.243210   -0.273476   -0.531191
             5    0       2.662710      5.409740      2.786690     0.477641   -0.006473   -0.707991
             6    0       4.098590      1.356030      3.990740    -0.565783    0.179847    0.860953
             7    0       2.779190      2.817080      5.450680     0.011251   -1.186235    0.222201
             8    0       4.144950      4.053660      1.408140    -0.205595    1.107093   -0.347754
 Energy
        -43.143317130000
 PlusStress:  xx          yy          zz          yz          xz          xy
         0.42280     0.22003    -0.01283    -0.13474     0.46616    -0.67724
 Feature   EFS_by	VASP
END_CFG

BEGIN_CFG
 Size
    8
 Supercell
         5.468900      0.000000      0.000000
         0.000000      5.468900      0.000000
         0.000000      0.000000      5.468900
 AtomData:  id type       cartes_x      cartes_y      cartes_z           fx          fy          fz