BEGIN_CFG
 Size
    8
 Supercell
         5.468900      0.000000      0.000000
         0.000000      5.468900      0.000000
         0.000000      0.000000      5.468900
 AtomData:  id type       cartes_x      cartes_y      cartes_z           fx          fy          fz
             1    0       0.000000      0.000000      0.000000    -0.000018    0.000047    0.000007
             2    0       1.367220      1.367220      1.367220    -0.000027    0.000029    0.000001
             3    0       0.000000      2.734450      2.734450     0.000007   -0.000048   -0.000022
             4    0       1.367220      4.101680      4.101680     0.000034   -0.000015   -0.000003
             5    0       2.734450      0.000000      2.734450    -0.000002   -0.000021   -0.000002
             6    0       4.101680      1.367220      4.101680     0.000026    0.000004   -0.000005
             7    0       2.734450      2.734450      0.000000    -0.000018    0.000023   -0.000038
             8    0       4.101680      4.101680      1.367220    -0.000016   -0.000001   -0.000014
 Energy
        -43.398076970000
 PlusStress:  xx          yy          zz          yz          xz          xy
        -0.01244    -0.01243    -0.01244     0.00018     0.00004    -0.00003
 Feature   EFS_by	VASP
END_CFG

BEGIN_CFG
 Size
    8
 Supercell
         5.468900      0.000000      0.000000
         0.000000      5.468900      0.000000
         0.000000      0.000000      5.468900
 AtomData:  id type       cartes_x      cartes_y      cartes_z           fx          fy          fz
             1    0       0.000290      0.001190      5.463490    -0.029926    0.013880    0.105993
             2    0       1.367910      1.368240      1.370000     0.014492   -0.009151   -0.072727
             3    0       0.000560      2.733270      2.734370     0.021276    0.007999    0.010833
             4    0       1.364700      4.102130      4.105850     0.010860   -0.016064   -0.047214
             5    0       2.730850      5.466900      2.737610     0.032977   -0.016281   -0.044617
             6    0       4.102670      1.366310      4.095970    -0.045971    0.023668    0.055228
             7    0       2.736080      2.739940      5.467740     0.004642   -0.095212    0.018869
             8    0       4.103640      4.097620      1.369470    -0.008350    0.091190   -0.026402
 Energy
        -43.396773590000
 PlusStress:  xx          yy          zz          yz          xz          xy
        -0.01606    -0.01732    -0.01821    -0.02013     0.06226    -0.06398
 Feature   EFS_by	VASP
END_CFG

BEGIN_CFG
 Size
    8
 Supercell
         5.468900      0.000000      0.000000
         0.000000      5.468900      0.000000
         0.000000      0.000000      5.468900
 AtomData:  id type       cartes_x      cartes_y      cartes_z           fx          fy          fz
             1    0       0.000580      0.002390      5.458110    -0.060756    0.029502    0.212689
             2    0       1.368590      1.369250      1.372760     0.029373   -0.018917   -0.145370
             3    0       0.001120      2.732090      2.734290     0.043324    0.016818    0.021975
             4    0       1.362180      4.102580      4.110010     0.022144   -0.033890   -0.095285
             5    0       2.727260      5.464890      2.740750     0.065753   -0.032300   -0.089492
             6    0       4.103640      1.365400      4.090290    -0.092091    0.046621    0.110768
             7    0       2.737720      2.745410      5.466590     0.009345   -0.190395    0.037150
             8    0       4.105610      4.093600      1.371700    -0.017078    0.182517   -0.052405
 Energy
        -43.392903330000
 PlusStress:  xx          yy          zz          yz          xz          xy
        -0.00737    -0.01195    -0.01537    -0.03916     0.12029    -0.12702
 Feature   EFS_by	VASP
END_CFG

BEGIN_CFG
 Size
    8
 Supercell
         5.468900      0.000000      0.000000
         0.000000      5.468900      0.000000
         0.000000      0.000000      5.468900
 AtomData:  id type       cartes_x      cartes_y      cartes_z           fx          fy          fz
             1    0       0.000840      0.003590      5.452810    -0.090700    0.045430    0.316209
             2    0       1.369290      1.370250      1.375460     0.043813   -0.028466   -0.215373
             3    0       0.001700      2.730910      2.734220     0.064726    0.024955    0.032709
             4    0       1.359670      4.103020      4.114140     0.033811   -0.051416   -0.142310
             5    0       2.723690      5.462860      2.743860     0.097471   -0.046989   -0.132511
             6    0       4.104590      1.364510      4.084640    -0.136436    0.068053    0.163988
             7    0       2.739360      2.750800      5.465450     0.014013   -0.281830    0.055545
             8    0       4.107570      4.089650      1.373910    -0.026722    0.270255   -0.078241
 Energy
        -43.386581550000
 PlusStress:  xx          yy          zz          yz          xz          xy
         0.00822    -0.00213    -0.00983    -0.05749     0.17468    -0.19006
 Feature   EFS_by	VASP
END_CFG

BEGIN_CFG
 Size
    8
 Supercell
         5.468900      0.000000      0.000000
         0.000000      5.468900      0.000000
         0.000000      0.000000      5.468900
 AtomData:  id type       cartes_x      cartes_y      cartes_z           fx          fy          fz
             1    0       0.001070      0.004810      5.447620    -0.120768    0.062441    0.418388
             2    0       1.370000      1.371240      1.378090     0.058214   -0.038423   -0.283903
             3    0       0.002300      2.729750      2.734160     0.086238    0.033753    0.043456
             4    0       1.357160      4.103450      4.118220     0.045922   -0.070165   -0.189354
             5    0       2.720160      5.460830      2.746930     0.128642   -0.060804   -0.175088
             6    0       4.105490      1.363650      4.079050    -0.180010    0.088347    0.216840
             7    0       2.741000      2.756100      5.464330     0.018491   -0.371567    0.073066
             8    0       4.109520      4.085780      1.376100    -0.036718    0.356419   -0.103374
 Energy
        -43.377977810000
 PlusStress:  xx          yy          zz          yz          xz          xy
         0.02823     0.01031    -0.00330    -0.07497     0.22553    -0.25232
 Feature   EFS_by	VASP
END_CFG
