BEGIN_CFG
 Size
    32
 Supercell
         8.080400      0.000000      0.000000
         0.000000      8.080400      0.000000
         0.000000      0.000000      8.080400
 AtomData:  id type       cartes_x      cartes_y      cartes_z           fx          fy          fz
             1    0       0.008370      7.994870      0.057370    -0.115948    0.170812   -0.301422
             2    0       8.062170      1.886890      2.083400    -0.086875    0.247144   -0.024825
             3    0       2.022060      7.992820      2.071470     0.273473    0.104829   -0.183274
             4    0       1.970550      2.002920      0.095530    -0.410966    0.203482   -0.291284
             5    0       3.933290      0.137440      7.992450     0.403994   -0.556773    0.413748
             6    0       3.869590      2.123540      2.002500     0.704668   -0.515863    0.175661
             7    0       6.038380      7.933530      2.013030     0.074418    0.309125   -0.195519
             8    0       5.960990      2.253160      0.143500    -0.041344   -0.823771   -0.369415
             9    0       7.936630      4.037590      0.035960     0.817019    0.168376   -0.027874
            10    0       0.012330      5.979040      2.064990    -0.080077    0.175326   -0.297148
            11    0       1.885700      3.909200      2.133200     0.076614    0.709988   -0.788016
            12    0       1.992790      6.015420      8.021020    -0.089082    0.236239    0.299583
            13    0       0.166470      7.987080      4.043050    -0.417158    0.347906   -0.043324
            14    0       0.128600      2.093660      6.093500    -0.453897   -0.200754   -0.001659
            15    0       2.081300      0.107350      5.946550    -0.190398   -0.537975    0.087647
            16    0       2.105960      2.207420      4.039200    -0.240338   -0.781644    0.337791
            17    0       8.050630      4.085700      4.072580    -0.105132   -0.362471   -0.039210
            18    0       0.159730      6.072260      5.957540    -0.331951    0.058281    0.441207
            19    0       2.007450      4.111180      6.023480     0.197121   -0.149927    0.171595
            20    0       2.019040      5.935370      3.890850     0.526705    0.183293    0.450254
            21    0       3.876910      4.096580      0.067700     0.204555   -0.116569   -0.433365
            22    0       4.057900      5.902310      2.034560    -0.297444    0.566590   -0.012997
            23    0       6.073510      4.130470      2.025240     0.162792   -0.217317    0.208498
            24    0       6.002180      6.070360      7.959390    -0.014825    0.038072    0.392279
            25    0       4.171930      8.064880      3.956650    -0.524634    0.116498    0.079852
            26    0       3.891950      2.050920      6.095990     0.693786    0.499927   -0.173567
            27    0       6.049990      8.000220      6.024750     0.275328    0.530686    0.178682
            28    0       6.140220      2.014310      4.079580    -0.026097   -0.120636   -0.035186
            29    0       4.277910      3.979800      3.985370    -0.646031    0.296784    0.542299
            30    0       3.990700      6.063650      5.999080    -0.000440   -0.112229   -0.068152
            31    0       6.144100      4.110080      6.099470    -0.353965   -0.234919   -0.260738
            32    0       6.116640      6.097170      4.097040     0.015946   -0.232447   -0.232163
 Energy
       -118.161098680000
 PlusStress:  xx          yy          zz          yz          xz          xy
         4.85082     7.31146     6.55020     0.34162     0.17627    -0.89774
 Feature   EFS_by	VASP
END_CFG

BEGIN_CFG
 Size
    32
 Supercell
         8.080400      0.000000      0.000000
         0.000000      8.080400      0.000000
         0.000000      0.000000      8.080400
 AtomData:  id type       cartes_x      cartes_y      cartes_z           fx          fy          fz
             1    0       0.009360      7.991940      0.060960    -0.118727    0.181964   -0.331576
             2    0       8.064260      1.887370      2.083270    -0.109328    0.251601   -0.009980
             3    0       2.017640      7.993980      2.067290     0.296073    0.091983   -0.167507
             4    0       1.971790      2.000710      0.101370    -0.400056    0.208083   -0.309742
             5    0       3.939470      0.143870      7.990680     0.383952   -0.574857    0.418420
             6    0       3.873190      2.119910      2.008000     0.693579   -0.494848    0.148141
             7    0       6.040900      7.933880      2.009040     0.061380    0.307971   -0.172733
             8    0       5.960820      2.250700      0.138510    -0.034724   -0.815192   -0.347676
             9    0       7.937310      4.035840      0.037430     0.805834    0.176518   -0.019125
            10    0       0.013140      5.980970      2.064530    -0.089412    0.153360   -0.279693
            11    0       1.883780      3.908890      2.133490     0.102719    0.701806   -0.777008
            12    0       1.989840      6.013110      8.017010    -0.067771    0.242744    0.313087
            13    0       0.167220      7.990270      4.042930    -0.418803    0.340977   -0.033951
            14    0       0.127670      2.091730      6.097710    -0.442248   -0.201374   -0.016868
            15    0       2.085820      0.106670      5.944180    -0.208506   -0.545827    0.101109
            16    0       2.110440      2.203800      4.040970    -0.270338   -0.757385    0.320317
            17    0       8.054650      4.091160      4.072680    -0.134038   -0.401623   -0.039039
            18    0       0.156040      6.070040      5.956060    -0.326433    0.074051    0.452838
            19    0       2.008520      4.111280      6.027480     0.186453   -0.161563    0.158609
            20    0       2.019890      5.934830      3.896280     0.526006    0.196229    0.422290
            21    0       3.880960      4.096400      0.066520     0.185707   -0.120375   -0.422655
            22    0       4.053730      5.903160      2.032500    -0.296412    0.574418   -0.013373
            23    0       6.066070      4.130870      2.023200     0.201545   -0.215650    0.203152
            24    0       6.002210      6.073200      7.963570    -0.015193    0.020196    0.372023
            25    0       4.169970      8.065200      3.949840    -0.513702    0.108772    0.088875
            26    0       3.889430      2.051640      6.093130     0.709019    0.505963   -0.161676
            27    0       6.047040      7.996370      6.022600     0.284975    0.547752    0.179136
            28    0       6.137310      2.015870      4.079420    -0.006095   -0.118710   -0.034985
            29    0       4.276760      3.983390      3.982010    -0.646811    0.297946    0.564430
            30    0       3.989300      6.065620      6.001250     0.009885   -0.120713   -0.071167
            31    0       6.144230      4.106180      6.103720    -0.359144   -0.211269   -0.281444
            32    0       6.117230      6.098360      4.098370     0.010548   -0.242862   -0.252293
 Energy
       -118.164736070000
 PlusStress:  xx          yy          zz          yz          xz          xy
         4.80348     7.37392     6.52401     0.38007     0.15461    -0.87164
 Feature   EFS_by	VASP
END_CFG

BEGIN_CFG
 Size
    32
 Supercell
         8.080400      0.000000      0.000000
         0.000000      8.080400      0.000000
         0.000000      0.000000      8.080400
 AtomData:  id type       cartes_x      cartes_y      cartes_z           fx          fy          fz
             1    0       0.010310      7.989110      0.064410    -0.121119    0.192892   -0.361167
             2    0       8.066290      1.887930      2.083140    -0.131085    0.256005    0.004421
             3    0       2.013360      7.995160      2.063080     0.317967    0.079249   -0.151171
             4    0       1.972880      1.998590      0.107060    -0.387288    0.212009   -0.327953
             5    0       3.945730      0.150040      7.989060     0.362626   -0.591350    0.421834
             6    0       3.877020      2.116130      2.013510     0.680736   -0.472572    0.120716
             7    0       6.043420      7.934340      2.005010     0.047935    0.307171   -0.148966
             8    0       5.960630      2.247980      0.133450    -0.027127   -0.804767   -0.325479
             9    0       7.938280      4.034170      0.038880     0.792394    0.183744   -0.010400
            10    0       0.013900      5.982950      2.063980    -0.097598    0.132005   -0.261514
            11    0       1.881910      3.908840      2.133510     0.129185    0.691699   -0.763558
            12    0       1.986890      6.010890      8.013130    -0.046619    0.248728    0.326165
            13    0       0.167830      7.993560      4.042800    -0.419723    0.333088   -0.024924
            14    0       0.126590      2.089740      6.101880    -0.430138   -0.202297   -0.031630
            15    0       2.090240      0.105810      5.941860    -0.225128   -0.552302    0.115193
            16    0       2.114780      2.199930      4.042830    -0.299664   -0.731021    0.300038
            17    0       8.058600      4.096420      4.072770    -0.160954   -0.439217   -0.039250
            18    0       0.152250      6.067860      5.954750    -0.320430    0.089452    0.463707
            19    0       2.009640      4.111320      6.031510     0.175100   -0.172912    0.145014
            20    0       2.020920      5.934360      3.901820     0.523588    0.208819    0.394296
            21    0       3.885060      4.096180      0.065190     0.167415   -0.123458   -0.411241
            22    0       4.049490      5.904200      2.030450    -0.294567    0.580660   -0.014476
            23    0       6.058760      4.131180      2.021250     0.238468   -0.214342    0.196443
            24    0       6.002230      6.076020      7.967850    -0.015975    0.001835    0.350733
            25    0       4.167840      8.065550      3.943110    -0.501766    0.100546    0.098215
            26    0       3.887170      2.052540      6.090220     0.723167    0.509542   -0.148549
            27    0       6.044210      7.992740      6.020530     0.293779    0.563883    0.179336
            28    0       6.134420      2.017380      4.079250     0.012608   -0.116972   -0.034562
            29    0       4.275390      3.987060      3.978890    -0.647541    0.297879    0.584174
            30    0       3.987920      6.067530      6.003390     0.020336   -0.128634   -0.073152
            31    0       6.144240      4.102230      6.107830    -0.363615   -0.187435   -0.300417
            32    0       6.117810      6.099450      4.099590     0.004869   -0.251949   -0.271991
 Energy
       -118.168727500000
 PlusStress:  xx          yy          zz          yz          xz          xy
         4.75551     7.43151     6.50101     0.41670     0.13204    -0.84277
 Feature   EFS_by	VASP
END_CFG

BEGIN_CFG
 Size
    32
 Supercell
         8.080400      0.000000      0.000000
         0.000000      8.080400      0.000000
         0.000000      0.000000      8.080400
 AtomData:  id type       cartes_x      cartes_y      cartes_z           fx          fy          fz
             1    0       0.011210      7.986360      0.067710    -0.123205    0.203506   -0.390067
             2    0       8.068260      1.888580      2.083010    -0.152157    0.260380    0.018293
             3    0       2.009230      7.996370      2.058840     0.339120    0.066630   -0.134303
             4    0       1.973810      1.996560      0.112600    -0.372723    0.215367   -0.345904
             5    0       3.952070      0.155950      7.987610     0.340021   -0.606362    0.423976
             6    0       3.881050      2.112210      2.019020     0.666313   -0.449060    0.093432
             7    0       6.045950      7.934900      2.000960     0.034259    0.306828   -0.124315
             8    0       5.960430      2.244990      0.128300    -0.018486   -0.792501   -0.302860
             9    0       7.939520      4.032580      0.040320     0.776901    0.189959   -0.001723
            10    0       0.014620      5.984950      2.063340    -0.104604    0.111321   -0.242835
            11    0       1.880090      3.909030      2.133260     0.155759    0.679810   -0.747775
            12    0       1.983950      6.008780      8.009410    -0.025696    0.254334    0.338884
            13    0       0.168270      7.996950      4.042660    -0.419866    0.324354   -0.016257
            14    0       0.125370      2.087690      6.106010    -0.417584   -0.203480   -0.045886
            15    0       2.094550      0.104750      5.939600    -0.240239   -0.557396    0.129745
            16    0       2.118990      2.195840      4.044780    -0.328257   -0.702931    0.277224
            17    0       8.062460      4.101500      4.072840    -0.185767   -0.475233   -0.039849
            18    0       0.148390      6.065730      5.953620    -0.313843    0.104538    0.473795
            19    0       2.010820      4.111300      6.035560     0.162996   -0.183995    0.130769
            20    0       2.022130      5.933970      3.907450     0.519525    0.221153    0.366383
            21    0       3.889180      4.095910      0.063730     0.149689   -0.125892   -0.398979
            22    0       4.045180      5.905440      2.028410    -0.291945    0.585349   -0.016218
            23    0       6.051590      4.131420      2.019380     0.273417   -0.213555    0.188725
            24    0       6.002240      6.078820      7.972230    -0.017096   -0.016680    0.328375
            25    0       4.165550      8.065940      3.936470    -0.488796    0.091698    0.107858
            26    0       3.885190      2.053610      6.087290     0.736249    0.510626   -0.134336
            27    0       6.041500      7.989340      6.018540     0.301738    0.578980    0.179316
            28    0       6.131550      2.018830      4.079060     0.030043   -0.115288   -0.033933
            29    0       4.273800      3.990810      3.975990    -0.648146    0.296657    0.601438
            30    0       3.986550      6.069380      6.005480     0.030947   -0.135815   -0.074209
            31    0       6.144110      4.098250      6.111810    -0.367354   -0.163601   -0.317768
            32    0       6.118390      6.100450      4.100710    -0.001222   -0.259680   -0.291084
 Energy
       -118.173104630000
 PlusStress:  xx          yy          zz          yz          xz          xy
         4.70799     7.48475     6.47910     0.45128     0.10879    -0.81227
 Feature   EFS_by	VASP
END_CFG

BEGIN_CFG
 Size
    32
 Supercell
         8.080400      0.000000      0.000000
         0.000000      8.080400      0.000000
         0.000000      0.000000      8.080400
 AtomData:  id type       cartes_x      cartes_y      cartes_z           fx          fy          fz
             1    0       0.012050      7.983710      0.070840    -0.124902    0.213802   -0.418168
             2    0       8.070160      1.889320      2.082890    -0.172403    0.264773    0.031515
             3    0       2.005240      7.997590      2.054590     0.359475    0.053960   -0.117014
             4    0       1.974610      1.994620      0.117960    -0.356539    0.218053   -0.363636
             5    0       3.958500      0.161610      7.986310     0.316058   -0.619933    0.424905
             6    0       3.885300      2.108160      2.024530     0.650419   -0.424407    0.066328
             7    0       6.048460      7.935570      1.996900     0.020308    0.306831   -0.098775
             8    0       5.960230      2.241740      0.123080    -0.009024   -0.778548   -0.279899
             9    0       7.941020      4.031070      0.041750     0.759284    0.195231    0.006849
            10    0       0.015310      5.986980      2.062610    -0.110437    0.091414   -0.223783
            11    0       1.878350      3.909470      2.132740     0.182414    0.666427   -0.729903
            12    0       1.981020      6.006780      8.005830    -0.005031    0.259593    0.351329
            13    0       0.168570      8.000430      4.042520    -0.419332    0.314701   -0.007924
            14    0       0.124000      2.085590      6.110100    -0.404588   -0.204947   -0.059692
            15    0       2.098740      0.103500      5.937400    -0.253863   -0.560935    0.144782
            16    0       2.123060      2.191520      4.046820    -0.356079   -0.673132    0.252125
            17    0       8.066220      4.106360      4.072900    -0.208421   -0.509487   -0.040750
            18    0       0.144440      6.063650      5.952670    -0.306727    0.119246    0.483031
            19    0       2.012050      4.111210      6.039630     0.150197   -0.194796    0.115893
            20    0       2.023520      5.933660      3.913180     0.513741    0.233095    0.338523
            21    0       3.893330      4.095600      0.062140     0.132719   -0.127613   -0.386052
            22    0       4.040790      5.906890      2.026380    -0.288444    0.588541   -0.018644
            23    0       6.044570      4.131580      2.017590     0.306285   -0.212996    0.179972
            24    0       6.002240      6.081600      7.976690    -0.018618   -0.035591    0.305124
            25    0       4.163100      8.066350      3.929910    -0.474876    0.082294    0.117863
            26    0       3.883480      2.054850      6.084330     0.748217    0.509142   -0.118945
            27    0       6.038920      7.986170      6.016630     0.308828    0.593023    0.179014
            28    0       6.128710      2.020240      4.078870     0.046117   -0.113850   -0.033096
            29    0       4.271980      3.994630      3.973330    -0.648454    0.294218    0.616224
            30    0       3.985200      6.071170      6.007530     0.041786   -0.142489   -0.074327
            31    0       6.143850      4.094230      6.115640    -0.370461   -0.139647   -0.333426
            32    0       6.118970      6.101350      4.101720    -0.007741   -0.266028   -0.309579
 Energy
       -118.177888140000
 PlusStress:  xx          yy          zz          yz          xz          xy
         4.66239     7.53220     6.45750     0.48323     0.08445    -0.78007
 Feature   EFS_by	VASP
END_CFG

BEGIN_CFG
 Size
    32
 Supercell
         8.080400      0.000000      0.000000
         0.000000      8.080400      0.000000
         0.000000      0.000000      8.080400
 AtomData:  id type       cartes_x      cartes_y      cartes_z           fx          fy          fz
             1    0       0.012850      7.981150      0.073800    -0.126276    0.223722   -0.445285
             2    0       8.071990      1.890140      2.082780    -0.191825    0.269143    0.043964
             3    0       2.001410      7.998820      2.050330     0.379003    0.041293   -0.099401
             4    0       1.975280      1.992770      0.123170    -0.338822    0.220087   -0.381061
             5    0       3.964990      0.167010      7.985180     0.290786   -0.632172    0.424690
             6    0       3.889750      2.103990      2.030020     0.633194   -0.398644    0.039381
             7    0       6.050970      7.936340      1.992820     0.006267    0.307265   -0.072506
             8    0       5.960020      2.238230      0.117800     0.001327   -0.762919   -0.256616
             9    0       7.942790      4.029630      0.043170     0.739721    0.199517    0.015201
            10    0       0.015940      5.989030      2.061810    -0.115135    0.072331   -0.204593
            11    0       1.876680      3.910140      2.131970     0.208920    0.651691   -0.710017
            12    0       1.978100      6.004880      8.002390     0.015271    0.264664    0.363604
            13    0       0.168710      8.004000      4.042370    -0.418059    0.304204    0.000097
            14    0       0.122500      2.083430      6.114130    -0.391113   -0.206633   -0.072978
            15    0       2.102810      0.102070      5.935260    -0.266026   -0.562901    0.160106
            16    0       2.126970      2.187000      4.048940    -0.383096   -0.642022    0.225047
            17    0       8.069880      4.111020      4.072940    -0.228779   -0.541905   -0.041958
            18    0       0.140400      6.061630      5.951890    -0.298987    0.133590    0.491381
            19    0       2.013320      4.111060      6.043710     0.136614   -0.205361    0.100390
            20    0       2.025080      5.933430      3.918980     0.506295    0.244738    0.310816
            21    0       3.897490      4.095250      0.060420     0.116530   -0.128686   -0.372362
            22    0       4.036330      5.908530      2.024350    -0.284111    0.590275   -0.021652
            23    0       6.037700      4.131660      2.015880     0.336945   -0.212804    0.170533
            24    0       6.002240      6.084340      7.981230    -0.020435   -0.054577    0.280993
            25    0       4.160500      8.066790      3.923430    -0.459963    0.072206    0.128303
            26    0       3.882050      2.056270      6.081340     0.759103    0.505069   -0.102550
            27    0       6.036470      7.983240      6.014790     0.315026    0.605916    0.178421
            28    0       6.125910      2.021590      4.078660     0.060833   -0.112552   -0.032079
            29    0       4.269950      3.998540      3.970910    -0.648326    0.290656    0.628433
            30    0       3.983880      6.072900      6.009540     0.052933   -0.148477   -0.073650
            31    0       6.143470      4.090190      6.119330    -0.372926   -0.115762   -0.347450
            32    0       6.119540      6.102140      4.102610    -0.014820   -0.270936   -0.327292
 Energy
       -118.183089770000
 PlusStress:  xx          yy          zz          yz          xz          xy
         4.62018     7.57472     6.43321     0.51212     0.05940    -0.74753
 Feature   EFS_by	VASP
END_CFG

BEGIN_CFG
 Size
    32
 Supercell
         8.080400      0.000000      0.000000
         0.000000      8.080400      0.000000
         0.000000      0.000000      8.080400
 AtomData:  id type       cartes_x      cartes_y      cartes_z           fx          fy          fz
             1    0       0.013600      7.978680      0.076590    -0.127303    0.233313   -0.471308
             2    0       8.073740      1.891060      2.082690    -0.210279    0.273511    0.055532
             3    0       1.997740      8.000060      2.046060     0.397572    0.028477   -0.081591
             4    0       1.975820      1.991020      0.128210    -0.319761    0.221401   -0.398190
             5    0       3.971540      0.172150      7.984210     0.264174   -0.643112    0.423380
             6    0       3.894400      2.099700      2.035490     0.614767   -0.371841    0.012567
             7    0       6.053470      7.937220      1.988750    -0.007909    0.307998   -0.045515
             8    0       5.959820      2.234470      0.112460     0.012353   -0.745828   -0.233136
             9    0       7.944810      4.028280      0.044590     0.718185    0.202904    0.023289
            10    0       0.016540      5.991090      2.060940    -0.118716    0.054169   -0.185387
            11    0       1.875090      3.911030      2.130940     0.235194    0.635890   -0.688400
            12    0       1.975210      6.003090      7.999110     0.035156    0.269556    0.375767
            13    0       0.168700      8.007650      4.042220    -0.416194    0.292779    0.007809
            14    0       0.120870      2.081200      6.118120    -0.377172   -0.208539   -0.085806
            15    0       2.106760      0.100440      5.933200    -0.276751   -0.563181    0.175727
            16    0       2.130720      2.182270      4.051120    -0.409315   -0.609582    0.196270
            17    0       8.073440      4.115450      4.072970    -0.246863   -0.572308   -0.043316
            18    0       0.136290      6.059660      5.951300    -0.290685    0.147443    0.498761
            19    0       2.014630      4.110830      6.047810     0.122273   -0.215669    0.084250
            20    0       2.026810      5.933300      3.924870     0.497096    0.255948    0.283291
            21    0       3.901680      4.094850      0.058580     0.101314   -0.129094   -0.358057
            22    0       4.031790      5.910370      2.022330    -0.278786    0.590587   -0.025285
            23    0       6.031000      4.131670      2.014250     0.365304   -0.212640    0.160405
            24    0       6.002240      6.087050      7.985840    -0.022559   -0.073892    0.256170
            25    0       4.157750      8.067260      3.917050    -0.444113    0.061442    0.139277
            26    0       3.880910      2.057860      6.078340     0.768896    0.498362   -0.085070
            27    0       6.034150      7.980540      6.013030     0.320304    0.617685    0.177520
            28    0       6.123150      2.022890      4.078450     0.074184   -0.111534   -0.030868
            29    0       4.267700      4.002530      3.968730    -0.647565    0.285925    0.638148
            30    0       3.982590      6.074570      6.011510     0.064439   -0.154018   -0.072230
            31    0       6.142950      4.086140      6.122880    -0.374788   -0.091777   -0.359809
            32    0       6.120100      6.102830      4.103380    -0.022437   -0.274431   -0.344285
 Energy
       -118.188711050000
 PlusStress:  xx          yy          zz          yz          xz          xy
         4.58326     7.61058     6.40524     0.53756     0.03327    -0.71473
 Feature   EFS_by	VASP
END_CFG

BEGIN_CFG
 Size
    32
 Supercell
         8.080400      0.000000      0.000000
         0.000000      8.080400      0.000000
         0.000000      0.000000      8.080400
 AtomData:  id type       cartes_x      cartes_y      cartes_z           fx          fy          fz
             1    0       0.014290      7.976320      0.079190    -0.128067    0.242523   -0.496007
             2    0       8.075400      1.892070      2.082620    -0.227767    0.277777    0.066121
             3    0       1.994230      8.001300      2.041780     0.415156    0.015627   -0.063682
             4    0       1.976250      1.989350      0.133070    -0.299460    0.222014   -0.414911
             5    0       3.978160      0.177030      7.983390     0.236287   -0.652856    0.421043
             6    0       3.899240      2.095300      2.040940     0.595230   -0.344029   -0.014172
             7    0       6.055940      7.938200      1.984680    -0.021987    0.309098   -0.017982
             8    0       5.959620      2.230460      0.107060     0.024131   -0.727279   -0.209486
             9    0       7.947080      4.027000      0.046000     0.694853    0.205407    0.030983
            10    0       0.017080      5.993160      2.060010    -0.121249    0.036956   -0.166392
            11    0       1.873600      3.912150      2.129680     0.261019    0.619136   -0.665096
            12    0       1.972350      6.001400      7.995980     0.054510    0.274393    0.387928
            13    0       0.168550      8.011390      4.042080    -0.413693    0.280542    0.015231
            14    0       0.119110      2.078920      6.122050    -0.362723   -0.210547   -0.098153
            15    0       2.110590      0.098610      5.931210    -0.286107   -0.561711    0.191420
            16    0       2.134300      2.177350      4.053360    -0.434725   -0.576241    0.166120
            17    0       8.076900      4.119650      4.072980    -0.262565   -0.600656   -0.044812
            18    0       0.132090      6.057760      5.950880    -0.281752    0.160818    0.505136
            19    0       2.015980      4.110530      6.051910     0.107066   -0.225746    0.067516
            20    0       2.028700      5.933250      3.930820     0.486211    0.266819    0.256024
            21    0       3.905870      4.094410      0.056630     0.087043   -0.128936   -0.343042
            22    0       4.027180      5.912410      2.020310    -0.272507    0.589526   -0.029380
            23    0       6.024460      4.131600      2.012670     0.391290   -0.212646    0.149940
            24    0       6.002220      6.089720      7.990520    -0.024833   -0.093214    0.230716
            25    0       4.154860      8.067750      3.910740    -0.427276    0.049852    0.150855
            26    0       3.880040      2.059620      6.075330     0.777601    0.489045   -0.066725
            27    0       6.031950      7.978070      6.011340     0.324655    0.628246    0.176255
            28    0       6.120430      2.024150      4.078230     0.086216   -0.110739   -0.029491
            29    0       4.265230      4.006590      3.966780    -0.646049    0.280159    0.645241
            30    0       3.981320      6.076170      6.013440     0.076387   -0.158908   -0.070288
            31    0       6.142300      4.082070      6.126270    -0.375997   -0.067918   -0.370561
            32    0       6.120650      6.103430      4.104020    -0.030723   -0.276467   -0.360370
 Energy
       -118.194744200000
 PlusStress:  xx          yy          zz          yz          xz          xy
         4.55324     7.64086     6.37050     0.55892     0.00656    -0.68294
 Feature   EFS_by	VASP
END_CFG

BEGIN_CFG
 Size
    32
 Supercell
         8.080400      0.000000      0.000000
         0.000000      8.080400      0.000000
         0.000000      0.000000      8.080400
 AtomData:  id type       cartes_x      cartes_y      cartes_z           fx          fy          fz
             1    0       0.014940      7.974050      0.081600    -0.128579    0.251456   -0.519285
             2    0       8.076980      1.893170      2.082570    -0.244188    0.281948    0.075605