BEGIN_CFG
 Size
    8
 Supercell
         5.468900      0.000000      0.000000
         0.000000      5.468900      0.000000
         0.000000      0.000000      5.468900
 AtomData:  id type       cartes_x      cartes_y      cartes_z           fx          fy          fz
             1    0       0.074890      0.070580      5.365600    -0.454225    0.162928    0.981771
             2    0       1.357320      1.323220      1.485500    -0.441590    0.084717   -0.397949
             3    0       5.426900      2.774250      2.737790     0.010265    0.346190   -0.156916
             4    0       1.348430      4.077460      4.157850     0.788707   -0.436165   -0.822517
             5    0       2.780290      5.415590      2.696100    -0.171941   -0.034138    0.999408
             6    0       4.097230      1.391010      4.088770    -0.507921   -0.024078   -0.137578
             7    0       2.653670      2.630710      0.070210     0.816716    0.934654   -0.192110
             8    0       4.136870      4.192770      1.273770    -0.040017   -1.034110   -0.274155
 Energy
        -43.149479590000
 PlusStress:  xx          yy          zz          yz          xz          xy
        -0.06744    -0.04402    -0.12432     0.01031    -0.80322    -1.33600
 Feature   EFS_by	VASP
END_CFG

BEGIN_CFG
 Size
    8
 Supercell
         5.468900      0.000000      0.000000
         0.000000      5.468900      0.000000
         0.000000      0.000000      5.468900
 AtomData:  id type       cartes_x      cartes_y      cartes_z           fx          fy          fz
             1    0       0.077340      0.074120      5.369350    -0.487526    0.073019    0.925308
             2    0       1.352520      1.319940      1.486820    -0.318388    0.155083   -0.435668
             3    0       5.429870      2.771300      2.737830    -0.053323    0.380888   -0.170636
             4    0       1.348400      4.078100      4.153320     0.771351   -0.416732   -0.749440
             5    0       2.779790      5.414160      2.696600    -0.193027    0.002126    1.004201
             6    0       4.099790      1.388000      4.087000    -0.531847    0.015891   -0.098764
             7    0       2.655220      2.635460      0.068500     0.773254    0.850030   -0.166098
             8    0       4.132660      4.194520      1.276170     0.039524   -1.060307   -0.308965
 Energy
        -43.158082670000
 PlusStress:  xx          yy          zz          yz          xz          xy
        -0.07480    -0.06723    -0.11910     0.12950    -0.72421    -1.31445
 Feature   EFS_by	VASP
END_CFG

BEGIN_CFG
 Size
    8
 Supercell
         5.468900      0.000000      0.000000
         0.000000      5.468900      0.000000
         0.000000      0.000000      5.468900
 AtomData:  id type       cartes_x      cartes_y      cartes_z           fx          fy          fz
             1    0       0.079570      0.077610      5.373340    -0.519104   -0.019064    0.861112
             2    0       1.347710      1.316780      1.487970    -0.194755    0.223518   -0.466835
             3    0       5.432770      2.768530      2.737810    -0.115491    0.411227   -0.182881
             4    0       1.348640      4.078590      4.148630     0.749043   -0.392928   -0.671771
             5    0       2.779220      5.412760      2.697430    -0.212546    0.037545    1.001111
             6    0       4.102120      1.385060      4.085230    -0.550882    0.055343   -0.059602
             7    0       2.657000      2.640400      0.066770     0.728271    0.763998   -0.142069
             8    0       4.128560      4.195870      1.278410     0.115502   -1.079604   -0.339112
 Energy
        -43.165510700000
 PlusStress:  xx          yy          zz          yz          xz          xy
        -0.08086    -0.08933    -0.10867     0.24510    -0.64169    -1.28090
 Feature   EFS_by	VASP
END_CFG

BEGIN_CFG
 Size
    8
 Supercell
         5.468900      0.000000      0.000000
         0.000000      5.468900      0.000000
         0.000000      0.000000      5.468900
 AtomData:  id type       cartes_x      cartes_y      cartes_z           fx          fy          fz
             1    0       0.081580      0.081020      5.377540    -0.549013   -0.112535    0.789799
             2    0       1.342940      1.313760      1.488930    -0.071558    0.289694   -0.491227
             3    0       5.435570      2.765970      2.737720    -0.175546    0.437159   -0.193591
             4    0       1.349130      4.078930      4.143800     0.722147   -0.365555   -0.590279
             5    0       2.778600      5.411400      2.698590    -0.230256    0.071829    0.990131
             6    0       4.104210      1.382200      4.083480    -0.565093    0.094016   -0.020232
             7    0       2.658990      2.645500      0.065030     0.681825    0.677073   -0.120517
             8    0       4.124580      4.196820      1.280490     0.187519   -1.091673   -0.364157
 Energy
        -43.171704920000
 PlusStress:  xx          yy          zz          yz          xz          xy
        -0.08538    -0.10971    -0.09328     0.35646    -0.55628    -1.23553
 Feature   EFS_by	VASP
END_CFG

BEGIN_CFG
 Size
    8
 Supercell
         5.468900      0.000000      0.000000
         0.000000      5.468900      0.000000
         0.000000      0.000000      5.468900
 AtomData:  id type       cartes_x      cartes_y      cartes_z           fx          fy          fz
             1    0       0.083360      0.084330      5.381930    -0.577657   -0.206500    0.712219
             2    0       1.338240      1.310900      1.489710     0.050417    0.353580   -0.508968
             3    0       5.438250      2.763600      2.737580    -0.233486    0.458710   -0.202976
             4    0       1.349850      4.079140      4.138880     0.691125   -0.335424   -0.505553
             5    0       2.777910      5.410090      2.700060    -0.245402    0.104658    0.971188
             6    0       4.106060      1.379430      4.081760    -0.574634    0.131879    0.019241
             7    0       2.661170      2.650720      0.063290     0.634533    0.589696   -0.101510
             8    0       4.120750      4.197390      1.282410     0.255130   -1.096587   -0.383730
 Energy
        -43.176638070000
 PlusStress:  xx          yy          zz          yz          xz          xy
        -0.08826    -0.12793    -0.07340     0.46301    -0.46843    -1.17884
 Feature   EFS_by	VASP
END_CFG

BEGIN_CFG
 Size
    8
 Supercell
         5.468900      0.000000      0.000000
         0.000000      5.468900      0.000000
         0.000000      0.000000      5.468900
 AtomData:  id type       cartes_x      cartes_y      cartes_z           fx          fy          fz
             1    0       0.084910      0.087500      5.386470    -0.604980   -0.300179    0.629162
             2    0       1.333640      1.308210      1.490300     0.170444    0.414921   -0.520120
             3    0       5.440810      2.761440      2.737360    -0.288695    0.475978   -0.210958
             4    0       1.350790      4.079240      4.133880     0.656293   -0.303289   -0.418306
             5    0       2.777150      5.408840      2.701830    -0.257810    0.135872    0.944451
             6    0       4.107690      1.376760      4.080080    -0.579672    0.168668    0.058698
             7    0       2.663530      2.656040      0.061540     0.586369    0.502213   -0.085375
             8    0       4.117080      4.197570      1.284150     0.318088   -1.094122   -0.397556
 Energy
        -43.180312830000
 PlusStress:  xx          yy          zz          yz          xz          xy
        -0.08934    -0.14350    -0.04952     0.56414    -0.37869    -1.11123
 Feature   EFS_by	VASP
END_CFG

BEGIN_CFG
 Size
    8
 Supercell
         5.468900      0.000000      0.000000
         0.000000      5.468900      0.000000
         0.000000      0.000000      5.468900
 AtomData:  id type       cartes_x      cartes_y      cartes_z           fx          fy          fz
             1    0       0.086230      0.090510      5.391140    -0.631273   -0.392741    0.541598
             2    0       1.329190      1.305720      1.490700     0.287795    0.473707   -0.525063
             3    0       5.443210      2.759480      2.737080    -0.341146    0.489012   -0.217782
             4    0       1.351940      4.079230      4.128820     0.618027   -0.269951   -0.329159
             5    0       2.776320      5.407660      2.703890    -0.266858    0.165206    0.909933
             6    0       4.109080      1.374190      4.078450    -0.580346    0.204411    0.097978
             7    0       2.666040      2.661440      0.059800     0.537769    0.414947   -0.072049
             8    0       4.113580      4.197370      1.285730     0.376071   -1.084531   -0.405474
 Energy
        -43.182755760000
 PlusStress:  xx          yy          zz          yz          xz          xy
        -0.08845    -0.15612    -0.02227     0.65944    -0.28752    -1.03339
 Feature   EFS_by	VASP
END_CFG

BEGIN_CFG
 Size
    8
 Supercell
         5.468900      0.000000      0.000000
         0.000000      5.468900      0.000000
         0.000000      0.000000      5.468900
 AtomData:  id type       cartes_x      cartes_y      cartes_z           fx          fy          fz
             1    0       0.087310      0.093340      5.395920    -0.656323   -0.483495    0.450348
             2    0       1.324910      1.303430      1.490910     0.401876    0.529775   -0.524161
             3    0       5.445460      2.757710      2.736730    -0.390273    0.497976   -0.223318
             4    0       1.353290      4.079120      4.123740     0.576610   -0.236056   -0.238775
             5    0       2.775410      5.406560      2.706220    -0.272501    0.192581    0.867995
             6    0       4.110260      1.371740      4.076870    -0.576909    0.238838    0.136939
             7    0       2.668690      2.666880      0.058060     0.488548    0.328125   -0.061721
             8    0       4.110270      4.196810      1.287140     0.429028   -1.067685   -0.407314
 Energy
        -43.184022620000
 PlusStress:  xx          yy          zz          yz          xz          xy
        -0.08548    -0.16540     0.00768     0.74844    -0.19549    -0.94594
 Feature   EFS_by	VASP
END_CFG

BEGIN_CFG
 Size
    8
 Supercell
         5.468900      0.000000      0.000000
         0.000000      5.468900      0.000000
         0.000000      0.000000      5.468900
 AtomData:  id type       cartes_x      cartes_y      cartes_z           fx          fy          fz
             1    0       0.088150      0.095960      5.400780    -0.680318   -0.571669    0.356482
             2    0       1.320840      1.301350      1.490940     0.512035    0.583117   -0.517990
             3    0       5.447540      2.756150      2.736310    -0.436182    0.502939   -0.227747
             4    0       1.354800      4.078940      4.118660     0.532296   -0.202291   -0.147653
             5    0       2.774420      5.405540      2.708810    -0.274263    0.217881    0.818709
             6    0       4.111220      1.369400      4.075370    -0.569548    0.272018    0.175438
             7    0       2.671470      2.672360      0.056330     0.439196    0.241996   -0.054140
             8    0       4.107160      4.195900      1.288400     0.476810   -1.043951   -0.403123
 Energy
        -43.184188730000
 PlusStress:  xx          yy          zz          yz          xz          xy
        -0.08046    -0.17109     0.03971     0.83081    -0.10302    -0.84978
 Feature   EFS_by	VASP
END_CFG

BEGIN_CFG
 Size
    8
 Supercell
         5.468900      0.000000      0.000000
         0.000000      5.468900      0.000000
         0.000000      0.000000      5.468900
 AtomData:  id type       cartes_x      cartes_y      cartes_z           fx          fy          fz
             1    0       0.088740      0.098350      5.405690    -0.702802   -0.656652    0.260823
             2    0       1.316990      1.299500      1.490800     0.617724    0.633527   -0.507079
             3    0       5.449450      2.754770      2.735810    -0.478255    0.504087   -0.230907
             4    0       1.356480      4.078690      4.113600     0.485315   -0.169182   -0.056435
             5    0       2.773350      5.404610      2.711650    -0.272254    0.241165    0.762584
             6    0       4.111970      1.367190      4.073950    -0.558545    0.303700    0.213302
             7    0       2.674360      2.677840      0.054600     0.389403    0.156731   -0.049435
             8    0       4.104250      4.194640      1.289500     0.519471   -1.013312   -0.392882
 Energy
        -43.183350030000
 PlusStress:  xx          yy          zz          yz          xz          xy
        -0.07334    -0.17310     0.07307     0.90616    -0.01058    -0.74574
 Feature   EFS_by	VASP
END_CFG

BEGIN_CFG
 Size
    8
 Supercell
         5.468900      0.000000      0.000000
         0.000000      5.468900      0.000000
         0.000000      0.000000      5.468900
 AtomData:  id type       cartes_x      cartes_y      cartes_z           fx          fy          fz
             1    0       0.089090      0.100480      5.410640    -0.723835   -0.737754    0.164452
             2    0       1.313400      1.297890      1.490480     0.718399    0.680983   -0.492162
             3    0       5.451170      2.753590      2.735240    -0.516711    0.501524   -0.232992
             4    0       1.358310      4.078390      4.108570     0.435802   -0.137286    0.034467
             5    0       2.772200      5.403770      2.714720    -0.266095    0.262404    0.699797
             6    0       4.112530      1.365110      4.072620    -0.544112    0.333926    0.250420
             7    0       2.677350      2.683320      0.052870     0.339600    0.072490   -0.047213
             8    0       4.101550      4.193040      1.290450     0.556969   -0.976261   -0.376804
 Energy
        -43.181616990000
 PlusStress:  xx          yy          zz          yz          xz          xy
        -0.06398    -0.17132     0.10700     0.97411     0.08129    -0.63470
 Feature   EFS_by	VASP
END_CFG

BEGIN_CFG
 Size
    8
 Supercell
         5.468900      0.000000      0.000000
         0.000000      5.468900      0.000000
         0.000000      0.000000      5.468900
 AtomData:  id type       cartes_x      cartes_y      cartes_z           fx          fy          fz
             1    0       0.089190      0.102350      5.415600    -0.742869   -0.814390    0.068196
             2    0       1.310090      1.296530      1.490000     0.813546    0.725227   -0.473916
             3    0       5.452700      2.752580      2.734600    -0.550951    0.495460   -0.233806
             4    0       1.360270      4.078040      4.103600     0.383939   -0.107001    0.124493
             5    0       2.770970      5.403030      2.718000    -0.256060    0.281757    0.630979
             6    0       4.112890      1.363160      4.071390    -0.526522    0.362469    0.286559
             7    0       2.680440      2.688770      0.051150     0.289475   -0.010657   -0.047530
             8    0       4.099070      4.191130      1.291270     0.589452   -0.932841   -0.355003
 Energy
        -43.179114970000
 PlusStress:  xx          yy          zz          yz          xz          xy
        -0.05234    -0.16564     0.14076     1.03430     0.17201    -0.51758
 Feature   EFS_by	VASP
END_CFG

BEGIN_CFG
 Size
    8
 Supercell
         5.468900      0.000000      0.000000
         0.000000      5.468900      0.000000
         0.000000      0.000000      5.468900
 AtomData:  id type       cartes_x      cartes_y      cartes_z           fx          fy          fz
             1    0       0.089030      0.103920      5.420550    -0.759793   -0.886007   -0.026889
             2    0       1.307070      1.295420      1.489360     0.902701    0.766154   -0.453151
             3    0       5.454030      2.751760      2.733880    -0.581195    0.486027   -0.233490
             4    0       1.362340      4.077660      4.098700     0.329790   -0.078729    0.213350
             5    0       2.769660      5.402390      2.721480    -0.241927    0.299297    0.556384
             6    0       4.113070      1.361350      4.070260    -0.506002    0.389401    0.321604
             7    0       2.683600      2.694180      0.049420     0.239396   -0.092567   -0.049986
             8    0       4.096800      4.188910      1.291950     0.616974   -0.883584   -0.327841
 Energy
        -43.175979800000
 PlusStress:  xx          yy          zz          yz          xz          xy
        -0.03849    -0.15615     0.17364     1.08641     0.26113    -0.39535
 Feature   EFS_by	VASP
END_CFG

BEGIN_CFG
 Size
    8
 Supercell
         5.468900      0.000000      0.000000
         0.000000      5.468900      0.000000
         0.000000      0.000000      5.468900
 AtomData:  id type       cartes_x      cartes_y      cartes_z           fx          fy          fz
             1    0       0.088610      0.105190      5.425480    -0.773907   -0.952029   -0.120075
             2    0       1.304380      1.294580      1.488560     0.985417    0.803481   -0.430612
             3    0       5.455150      2.751100      2.733090    -0.606892    0.473422   -0.231820
             4    0       1.364530      4.077250      4.093890     0.273445   -0.052721    0.300547
             5    0       2.768270      5.401850      2.725130    -0.224024    0.315214    0.476656
             6    0       4.113080      1.359680      4.069250    -0.482782    0.414443    0.355335
             7    0       2.686830      2.699550      0.047670     0.189037   -0.173157   -0.054574
             8    0       4.094750      4.186390      1.292530     0.639710   -0.828617   -0.295515
 Energy
        -43.172357020000
 PlusStress:  xx          yy          zz          yz          xz          xy
        -0.02238    -0.14294     0.20504     1.13001     0.34800    -0.26898
 Feature   EFS_by	VASP
END_CFG

BEGIN_CFG
 Size
    8
 Supercell
         5.468900      0.000000      0.000000
         0.000000      5.468900      0.000000
         0.000000      0.000000      5.468900
 AtomData:  id type       cartes_x      cartes_y      cartes_z           fx          fy          fz
             1    0       0.087930      0.106130      5.430370    -0.785043   -1.011947   -0.210348
             2    0       1.302020      1.294020      1.487620     1.061215    0.837027   -0.407089
             3    0       5.456070      2.750600      2.732210    -0.628221    0.457733   -0.228839
             4    0       1.366810      4.076830      4.089180     0.214946   -0.029275    0.385822
             5    0       2.766800      5.401430      2.728950    -0.202256    0.329686    0.392119
             6    0       4.112920      1.358140      4.068350    -0.457076    0.437672    0.387646
             7    0       2.690130      2.704860      0.045910     0.138738   -0.252321   -0.060830
             8    0       4.092920      4.183590      1.293000     0.657729   -0.768533   -0.258486
 Energy
        -43.168397850000
 PlusStress:  xx          yy          zz          yz          xz          xy
        -0.00405    -0.12619     0.23432     1.16493     0.43218    -0.13960
 Feature   EFS_by	VASP
END_CFG

BEGIN_CFG
 Size
    8
 Supercell
         5.468900      0.000000      0.000000
         0.000000      5.468900      0.000000
         0.000000      0.000000      5.468900
 AtomData:  id type       cartes_x      cartes_y      cartes_z           fx          fy          fz
             1    0       0.086980      0.106730      5.435210    -0.792416   -1.065230   -0.297055
             2    0       1.300020      1.293740      1.486530     1.129603    0.866417   -0.383321
             3    0       5.456780      2.750260      2.731250    -0.644675    0.439106   -0.224367
             4    0       1.369170      4.076390      4.084590     0.154306   -0.008498    0.468769
             5    0       2.765260      5.401110      2.732920    -0.177048    0.342914    0.303492
             6    0       4.112600      1.356760      4.067590    -0.429141    0.458834    0.418254
             7    0       2.693490      2.710100      0.044120     0.088164   -0.329983   -0.068686
             8    0       4.091310      4.180520      1.293390     0.671201   -0.703478   -0.217098
 Energy
        -43.164257190000
 PlusStress:  xx          yy          zz          yz          xz          xy
         0.01632    -0.10601     0.26093     1.19062     0.51306    -0.00808
 Feature   EFS_by	VASP
END_CFG

BEGIN_CFG
 Size
    8
 Supercell
         5.468900      0.000000      0.000000
         0.000000      5.468900      0.000000
         0.000000      0.000000      5.468900
 AtomData:  id type       cartes_x      cartes_y      cartes_z           fx          fy          fz
             1    0       0.085740      0.106960      5.439970    -0.795765   -1.111370   -0.379268
             2    0       1.298390      1.293760      1.485310     1.190160    0.891379   -0.360117
             3    0       5.457270      2.750070      2.730210    -0.656430    0.417662   -0.218430
             4    0       1.371600      4.075940      4.080120     0.091586    0.009392    0.549149
             5    0       2.763640      5.400910      2.737030    -0.148356    0.355073    0.211136
             6    0       4.112130      1.355520      4.066970    -0.399152    0.477953    0.447068
             7    0       2.696910      2.715270      0.042290     0.037724   -0.405949   -0.077684
             8    0       4.089920      4.177170      1.293700     0.680199   -0.634076   -0.171856
 Energy
        -43.160092390000
 PlusStress:  xx          yy          zz          yz          xz          xy
         0.03867    -0.08262     0.28425     1.20683     0.59005     0.12442
 Feature   EFS_by	VASP
END_CFG

BEGIN_CFG
 Size
    8
 Supercell
         5.468900      0.000000      0.000000
         0.000000      5.468900      0.000000
         0.000000      0.000000      5.468900
 AtomData:  id type       cartes_x      cartes_y      cartes_z           fx          fy          fz
             1    0       0.084210      0.106810      5.444660    -0.794271   -1.149869   -0.456423
             2    0       1.297160      1.294080      1.483940     1.242428    0.911533   -0.338160
             3    0       5.457530      2.750020      2.729080    -0.662968    0.393506   -0.210738
             4    0       1.374090      4.075500      4.075800     0.026828    0.024470    0.626549
             5    0       2.761960      5.400830      2.741250    -0.116668    0.366416    0.115806
             6    0       4.111520      1.354430      4.066490    -0.367299    0.494714    0.473809
             7    0       2.700370      2.720350      0.040420    -0.012915   -0.480176   -0.087715
             8    0       4.088750      4.173580      1.293960     0.684823   -0.560493   -0.123157
 Energy
        -43.156059840000
 PlusStress:  xx          yy          zz          yz          xz          xy
         0.06278    -0.05632     0.30383     1.21317     0.66267     0.25686
 Feature   EFS_by	VASP
END_CFG

BEGIN_CFG
 Size
    8
 Supercell
         5.468900      0.000000      0.000000
         0.000000      5.468900      0.000000
         0.000000      0.000000      5.468900
 AtomData:  id type       cartes_x      cartes_y      cartes_z           fx          fy          fz
             1    0       0.082390      0.106260      5.449260    -0.787589   -1.180208   -0.527718
             2    0       1.296330      1.294730      1.482440     1.285961    0.926588   -0.318128
             3    0       5.457580      2.750110      2.727860    -0.664421    0.366710   -0.201331
             4    0       1.376630      4.075060      4.071640    -0.039916    0.036617    0.700725
             5    0       2.760210      5.400880      2.745570    -0.082062    0.377113    0.017895
             6    0       4.110780      1.353500      4.066170    -0.333732    0.509109    0.498336
             7    0       2.703880      2.725330      0.038490    -0.063317   -0.552482   -0.098276
             8    0       4.087800      4.169740      1.294180     0.685101   -0.483398   -0.071554
 Energy
        -43.152310430000
 PlusStress:  xx          yy          zz          yz          xz          xy
         0.08852    -0.02747     0.31935     1.20934     0.73031     0.38808
 Feature   EFS_by	VASP
END_CFG

BEGIN_CFG
 Size
    8
 Supercell
         5.468900      0.000000      0.000000
         0.000000      5.468900      0.000000
         0.000000      0.000000      5.468900
 AtomData:  id type       cartes_x      cartes_y      cartes_z           fx          fy          fz
             1    0       0.080270      0.105290      5.453760    -0.774937   -1.201902   -0.592668
             2    0       1.295940      1.295710      1.480800     1.320291    0.936048   -0.300600
             3    0       5.457390      2.750320      2.726550    -0.660268    0.337324   -0.189880
             4    0       1.379190      4.074620      4.067640    -0.108575    0.045991    0.771303
             5    0       2.758400      5.401060      2.749970    -0.045086    0.387316   -0.081755
             6    0       4.109900      1.352730      4.066020    -0.298644    0.520823    0.520343
             7    0       2.707430      2.730220      0.036490    -0.113793   -0.622632   -0.109236
             8    0       4.087070      4.165660      1.294370     0.681040   -0.402948   -0.017538
 Energy
        -43.148989320000
 PlusStress:  xx          yy          zz          yz          xz          xy
         0.11560     0.00356     0.33055     1.19495     0.79253     0.51685
 Feature   EFS_by	VASP
END_CFG

BEGIN_CFG
 Size
    8
 Supercell
         5.468900      0.000000      0.000000
         0.000000      5.468900      0.000000
         0.000000      0.000000      5.468900
 AtomData:  id type       cartes_x      cartes_y      cartes_z           fx          fy          fz
             1    0       0.077830      0.103890      5.458140    -0.755997   -1.214443   -0.650623
             2    0       1.296000      1.297030      1.479030     1.344925    0.939659   -0.286145
             3    0       5.456970      2.750660      2.725150    -0.650654    0.305402   -0.176442
             4    0       1.381770      4.074190      4.063820    -0.179009    0.052608    0.837948
             5    0       2.756540      5.401370      2.754440    -0.005848    0.397171   -0.182702
             6    0       4.108900      1.352120      4.066040    -0.262189    0.529804    0.539704
             7    0       2.711020      2.734990      0.034410    -0.163817   -0.690355   -0.120009
             8    0       4.086570      4.161350      1.294570     0.672604   -0.319853    0.038285
 Energy
        -43.146227890000
 PlusStress:  xx          yy          zz          yz          xz          xy
         0.14379     0.03642     0.33720     1.16976     0.84881     0.64207
 Feature   EFS_by	VASP
END_CFG

BEGIN_CFG
 Size
    8
 Supercell
         5.468900      0.000000      0.000000
         0.000000      5.468900      0.000000
         0.000000      0.000000      5.468900
 AtomData:  id type       cartes_x      cartes_y      cartes_z           fx          fy          fz
             1    0       0.075060      0.102020      5.462410    -0.729999   -1.217392   -0.701324
             2    0       1.296530      1.298710      1.477110     1.359517    0.936890   -0.275154
             3    0       5.456310      2.751110      2.723650    -0.634997    0.271004   -0.160599
             4    0       1.384360      4.073760      4.060200    -0.251107    0.056740    0.900238
             5    0       2.754630      5.401830      2.758960     0.035019    0.406811   -0.284015
             6    0       4.107790      1.351690      4.066260    -0.224488    0.535694    0.556081
             7    0       2.714640      2.739640      0.032230    -0.213659   -0.755398   -0.130520
             8    0       4.086280      4.156830      1.294780     0.659688   -0.234310    0.095341
 Energy
        -43.144141600000
 PlusStress:  xx          yy          zz          yz          xz          xy
         0.17276     0.07070     0.33915     1.13349     0.89881     0.76238
 Feature   EFS_by	VASP
END_CFG

BEGIN_CFG
 Size
    8
 Supercell
         5.468900      0.000000      0.000000
         0.000000      5.468900      0.000000
         0.000000      0.000000      5.468900
 AtomData:  id type       cartes_x      cartes_y      cartes_z           fx          fy          fz
             1    0       0.071970      0.099690      5.466550    -0.696700   -1.210321   -0.744275
             2    0       1.297550      1.300770      1.475040     1.363616    0.927506   -0.267954
             3    0       5.455410      2.751670      2.722050    -0.613427    0.234104   -0.142475
             4    0       1.386930      4.073340      4.056790    -0.324589    0.058517    0.957812
             5    0       2.752680      5.402450      2.763500     0.077307    0.416262   -0.385179
             6    0       4.106570      1.351420      4.066670    -0.185683    0.538403    0.569285
             7    0       2.718280      2.744160      0.029960    -0.262718   -0.817334   -0.140077
             8    0       4.086210      4.152100      1.295040     0.642138   -0.147110    0.152910
 Energy
        -43.142822690000
 PlusStress:  xx          yy          zz          yz          xz          xy
         0.20202     0.10589     0.33661     1.08603     0.94208     0.87657
 Feature   EFS_by	VASP
END_CFG

BEGIN_CFG
 Size
    8
 Supercell
         5.468900      0.000000      0.000000
         0.000000      5.468900      0.000000
         0.000000      0.000000      5.468900
 AtomData:  id type       cartes_x      cartes_y      cartes_z           fx          fy          fz