BEGIN_CFG
 Size
    32
 Supercell
         8.080400      0.000000      0.000000
         0.000000      8.080400      0.000000
         0.000000      0.000000      8.080400
 AtomData:  id type       cartes_x      cartes_y      cartes_z           fx          fy          fz
             1    0       0.000000      0.000000      0.000000     0.000000    0.000000    0.000000
             2    0       0.000000      2.020100      2.020100     0.000000   -0.000000   -0.000000
             3    0       2.020100      0.000000      2.020100    -0.000000    0.000000   -0.000000
             4    0       2.020100      2.020100      0.000000    -0.000000   -0.000000    0.000000
             5    0       4.040200      0.000000      0.000000     0.000000    0.000000    0.000000
             6    0       4.040200      2.020100      2.020100    -0.000000   -0.000000   -0.000000
             7    0       6.060300      0.000000      2.020100    -0.000000    0.000000   -0.000000
             8    0       6.060300      2.020100      0.000000    -0.000000   -0.000000    0.000000
             9    0       0.000000      4.040200      0.000000     0.000000    0.000000    0.000000
            10    0       0.000000      6.060300      2.020100     0.000000   -0.000000   -0.000000
            11    0       2.020100      4.040200      2.020100    -0.000000   -0.000000   -0.000000
            12    0       2.020100      6.060300      0.000000    -0.000000   -0.000000    0.000000
            13    0       0.000000      0.000000      4.040200     0.000000    0.000000    0.000000
            14    0       0.000000      2.020100      6.060300     0.000000   -0.000000   -0.000000
            15    0       2.020100      0.000000      6.060300    -0.000000    0.000000   -0.000000
            16    0       2.020100      2.020100      4.040200    -0.000000   -0.000000   -0.000000
            17    0       0.000000      4.040200      4.040200     0.000000    0.000000    0.000000
            18    0       0.000000      6.060300      6.060300     0.000000   -0.000000   -0.000000
            19    0       2.020100      4.040200      6.060300    -0.000000    0.000000   -0.000000
            20    0       2.020100      6.060300      4.040200    -0.000000   -0.000000    0.000000
            21    0       4.040200      4.040200      0.000000     0.000000    0.000000    0.000000
            22    0       4.040200      6.060300      2.020100     0.000000   -0.000000   -0.000000
            23    0       6.060300      4.040200      2.020100    -0.000000    0.000000   -0.000000
            24    0       6.060300      6.060300      0.000000    -0.000000   -0.000000    0.000000
            25    0       4.040200      0.000000      4.040200     0.000000    0.000000    0.000000
            26    0       4.040200      2.020100      6.060300     0.000000   -0.000000   -0.000000
            27    0       6.060300      0.000000      6.060300    -0.000000    0.000000   -0.000000
            28    0       6.060300      2.020100      4.040200    -0.000000   -0.000000    0.000000
            29    0       4.040200      4.040200      4.040200     0.000000    0.000000    0.000000
            30    0       4.040200      6.060300      6.060300     0.000000   -0.000000   -0.000000
            31    0       6.060300      4.040200      6.060300    -0.000000    0.000000   -0.000000
            32    0       6.060300      6.060300      4.040200    -0.000000   -0.000000    0.000000
 Energy
       -119.334833178182
 PlusStress:  xx          yy          zz          yz          xz          xy
         0.44995     0.44995     0.44995    -0.00000     0.00000     0.00000
 Feature   EFS_by	VASP
END_CFG

BEGIN_CFG
 Size
    32
 Supercell
         8.080400      0.000000      0.000000
         0.000000      8.080400      0.000000
         0.000000      0.000000      8.080400
 AtomData:  id type       cartes_x      cartes_y      cartes_z           fx          fy          fz
             1    0       8.080360      8.078010      8.076220    -0.003620    0.016075    0.020008
             2    0       8.079070      2.021070      2.021110     0.008848   -0.002012   -0.007654
             3    0       2.019960      0.003140      2.026170    -0.001845   -0.008006   -0.024512
             4    0       2.019520      2.019050      0.002250    -0.009256   -0.001438   -0.001115
             5    0       4.038820      0.001140      8.080170     0.007551   -0.014198    0.008533
             6    0       4.041910      2.020800      2.021190    -0.009009    0.005003    0.006057
             7    0       6.060630      0.006040      2.020810     0.004055   -0.023294   -0.000500
             8    0       6.056690      2.018560      0.004420     0.018769    0.002030   -0.025668
             9    0       8.077500      4.040910      8.074510     0.010544   -0.019675    0.022589
            10    0       8.077820      6.061380      2.020360     0.012673    0.000272    0.003979
            11    0       2.019490      4.044140      2.014290    -0.008294   -0.013774    0.018066
            12    0       2.016680      6.060950      8.078260     0.014092    0.002692    0.005919
            13    0       0.004230      8.079800      4.045750    -0.011625   -0.000730   -0.016340
            14    0       0.003000      2.020110      6.059950    -0.008453   -0.000898    0.012206
            15    0       2.018990      0.000350      6.063150     0.006471    0.004226   -0.014042
            16    0       2.021750      2.022200      4.038510    -0.001856    0.004422    0.007816
            17    0       8.077240      4.036780      4.042580     0.017933    0.011699   -0.012774
            18    0       8.076310      6.058630      6.060180     0.013409    0.004873   -0.016169
            19    0       2.019780      4.040550      6.062890    -0.004741    0.009754   -0.018396
            20    0       2.021650      6.062380      4.034940    -0.010698   -0.017216    0.024170
            21    0       4.036900      4.034110      8.076370     0.014551    0.031580    0.010282
            22    0       4.041160      6.055750      2.020670     0.002810    0.016871   -0.018866
            23    0       6.061160      4.037570      2.019140    -0.002938   -0.003708    0.006718
            24    0       6.068860      6.054820      0.004300    -0.046925    0.019862   -0.017083
            25    0       4.042030      0.000970      4.040180    -0.003870    0.004189   -0.001199
            26    0       4.037850      2.025670      6.060660     0.005278   -0.024173   -0.004765
            27    0       6.059370      0.002240      6.058650     0.001448   -0.007780    0.013897
            28    0       6.063590      2.014920      4.044150    -0.010323    0.017784   -0.003929
            29    0       4.041410      4.039170      4.042460    -0.000760    0.000016   -0.009238
            30    0       4.039880      6.066520      6.056770     0.009905   -0.021725    0.018104
            31    0       6.061480      4.039100      6.060930    -0.011983    0.001229   -0.003414
            32    0       6.062100      6.058770      4.034790    -0.002141    0.006049    0.017321
 Energy
       -119.333153026768
 PlusStress:  xx          yy          zz          yz          xz          xy
         0.46876     0.47111     0.46889    -0.00168     0.00232    -0.00247
 Feature   EFS_by	VASP
END_CFG

BEGIN_CFG
 Size
    32
 Supercell
         8.080400      0.000000      0.000000
         0.000000      8.080400      0.000000
         0.000000      0.000000      8.080400
 AtomData:  id type       cartes_x      cartes_y      cartes_z           fx          fy          fz
             1    0       8.080320      8.075620      8.072040    -0.007674    0.032136    0.039852
             2    0       8.077750      2.022040      2.022130     0.017983   -0.004115   -0.015156
             3    0       2.019820      0.006290      2.032220    -0.003873   -0.015127   -0.048704
             4    0       2.018950      2.018010      0.004500    -0.018685   -0.003083   -0.002142
             5    0       4.037430      0.002280      8.079940     0.014705   -0.027797    0.017049
             6    0       4.043620      2.021490      2.022290    -0.018239    0.010095    0.012209
             7    0       6.060970      0.012080      2.021520     0.008402   -0.046594   -0.000742
             8    0       6.053090      2.017010      0.008830     0.037512    0.004213   -0.051547
             9    0       8.074600      4.041610      8.068630     0.021763   -0.039981    0.045103
            10    0       8.075250      6.062460      2.020630     0.026027    0.000773    0.008120
            11    0       2.018870      4.048080      2.008490    -0.016466   -0.027522    0.035799
            12    0       2.013260      6.061600      8.076110     0.027915    0.005140    0.011585
            13    0       0.008460      8.079190      4.051290    -0.023367   -0.001370   -0.032676
            14    0       0.006000      2.020120      6.059600    -0.016768   -0.001853    0.024166
            15    0       2.017890      0.000690      6.065990     0.012803    0.008688   -0.027950
            16    0       2.023390      2.024300      4.036820    -0.003847    0.009015    0.015790
            17    0       8.074080      4.033360      4.044960     0.035612    0.023261   -0.025201
            18    0       8.072220      6.056970      6.060070     0.026392    0.009604   -0.032426
            19    0       2.019470      4.040910      6.065470    -0.009725    0.019198   -0.036844
            20    0       2.023190      6.064450      4.029690    -0.021008   -0.034367    0.048083
            21    0       4.033600      4.028020      8.072350     0.029123    0.062790    0.021199
            22    0       4.042120      6.051210      2.021240     0.005755    0.033541   -0.037703
            23    0       6.062020      4.034940      2.018190    -0.005690   -0.007336    0.013557
            24    0       6.077420      6.049340      0.008590    -0.093507    0.039401   -0.033652
            25    0       4.043860      0.001930      4.040170    -0.007746    0.008610   -0.002772
            26    0       4.035500      2.031230      6.061020     0.010344   -0.048261   -0.010142
            27    0       6.058440      0.004480      6.057010     0.003135   -0.015590    0.027919
            28    0       6.066880      2.009750      4.048090    -0.020394    0.035661   -0.007784
            29    0       4.042610      4.038140      4.044720    -0.001346    0.000290   -0.018300
            30    0       4.039560      6.072740      6.053250     0.019336   -0.043543    0.035662
            31    0       6.062660      4.038000      6.061560    -0.024233    0.002187   -0.006869
            32    0       6.063900      6.057240      4.029390    -0.004236    0.011935    0.034517
 Energy
       -119.328130942732
 PlusStress:  xx          yy          zz          yz          xz          xy
         0.52518     0.53499     0.52571    -0.00663     0.00919    -0.00998
 Feature   EFS_by	VASP
END_CFG

BEGIN_CFG
 Size
    32
 Supercell
         8.080400      0.000000      0.000000
         0.000000      8.080400      0.000000
         0.000000      0.000000      8.080400
 AtomData:  id type       cartes_x      cartes_y      cartes_z           fx          fy          fz
             1    0       8.080270      8.073240      8.067860    -0.012167    0.048099    0.059518
             2    0       8.076420      2.023010      2.023150     0.027475   -0.006297   -0.022473
             3    0       2.019690      0.009420      2.038270    -0.006196   -0.021122   -0.072525
             4    0       2.018370      2.016970      0.006740    -0.028204   -0.004936   -0.002973
             5    0       4.036050      0.003420      8.079710     0.021385   -0.040775    0.025547
             6    0       4.045320      2.022200      2.023380    -0.027667    0.015188    0.018475
             7    0       6.061300      0.018110      2.022240     0.013105   -0.069684   -0.000716
             8    0       6.049510      2.015470      0.013220     0.056164    0.006466   -0.077603
             9    0       8.071710      4.042310      8.062760     0.033610   -0.060929    0.067481
            10    0       8.072670      6.063540      2.020890     0.040115    0.001531    0.012505
            11    0       2.018260      4.052010      2.002710    -0.024719   -0.041123    0.053058
            12    0       2.009840      6.062260      8.073970     0.041428    0.007351    0.016863
            13    0       0.012680      8.078600      4.056820    -0.035113   -0.002043   -0.048980
            14    0       0.009000      2.020120      6.059260    -0.024978   -0.002782    0.035819
            15    0       2.016790      0.001040      6.068820     0.019009    0.013302   -0.041699
            16    0       2.025030      2.026400      4.035140    -0.006005    0.013841    0.023861
            17    0       8.070920      4.029950      4.047330     0.053023    0.034575   -0.037279
            18    0       8.068140      6.055310      6.059950     0.038910    0.014235   -0.048713
            19    0       2.019160      4.041260      6.068050    -0.014940    0.028417   -0.055358
            20    0       2.024740      6.066510      4.024450    -0.031014   -0.051462    0.071754
            21    0       4.030310      4.021950      8.068330     0.043585    0.093388    0.032661
            22    0       4.043080      6.046670      2.021810     0.008865    0.049992   -0.056493
            23    0       6.062880      4.032300      2.017240    -0.008259   -0.010836    0.020547
            24    0       6.085950      6.043880      0.012870    -0.139333    0.058287   -0.049633
            25    0       4.045680      0.002900      4.040150    -0.011566    0.013204   -0.004656
            26    0       4.033150      2.036770      6.061380     0.015142   -0.072086   -0.016158
            27    0       6.057520      0.006710      6.055380     0.004995   -0.023392    0.042054
            28    0       6.070160      2.004590      4.052020    -0.030113    0.053550   -0.011462
            29    0       4.043810      4.037120      4.046980    -0.001750    0.000770   -0.027160
            30    0       4.039240      6.078940      6.049740     0.028245   -0.065199    0.052573
            31    0       6.063840      4.036900      6.062190    -0.036725    0.002880   -0.010373
            32    0       6.065710      6.055720      4.024000    -0.006305    0.017586    0.051538
 Energy
       -119.319819393971
 PlusStress:  xx          yy          zz          yz          xz          xy
         0.61922     0.64221     0.62049    -0.01468     0.02052    -0.02268
 Feature   EFS_by	VASP
END_CFG

BEGIN_CFG
 Size
    32
 Supercell
         8.080400      0.000000      0.000000
         0.000000      8.080400      0.000000
         0.000000      0.000000      8.080400
 AtomData:  id type       cartes_x      cartes_y      cartes_z           fx          fy          fz
             1    0       8.080220      8.070880      8.063700    -0.017102    0.063894    0.078851
             2    0       8.075100      2.023970      2.024160     0.037191   -0.008460   -0.029577
             3    0       2.019560      0.012550      2.044290    -0.008831   -0.026000   -0.095698
             4    0       2.017800      2.015920      0.008980    -0.037902   -0.006938   -0.003705
             5    0       4.034670      0.004570      8.079480     0.027669   -0.053225    0.034021
             6    0       4.047010      2.022900      2.024470    -0.037210    0.020388    0.024859
             7    0       6.061650      0.024110      2.022950     0.017967   -0.092650   -0.000435
             8    0       6.045940      2.013940      0.017590     0.074743    0.008761   -0.103776
             9    0       8.068820      4.042990      8.056900     0.046123   -0.082495    0.089651
            10    0       8.070110      6.064610      2.021160     0.054893    0.002569    0.017064
            11    0       2.017640      4.055920      1.996940    -0.033062   -0.054453    0.069768
            12    0       2.006440      6.062910      8.071830     0.054486    0.009399    0.021730
            13    0       0.016880      8.078020      4.062340    -0.046752   -0.002758   -0.065162
            14    0       0.011980      2.020140      6.058920    -0.032930   -0.003818    0.047260
            15    0       2.015700      0.001400      6.071650     0.024953    0.018140   -0.055325
            16    0       2.026660      2.028500      4.033460    -0.008283    0.018881    0.032098
            17    0       8.067780      4.026550      4.049700     0.070056    0.045604   -0.049074
            18    0       8.064060      6.053650      6.059820     0.050941    0.018778   -0.065006
            19    0       2.018840      4.041620      6.070620    -0.020365    0.037335   -0.073897
            20    0       2.026290      6.068560      4.019230    -0.040652   -0.068465    0.095119
            21    0       4.027020      4.015900      8.064310     0.058045    0.123476    0.044751
            22    0       4.044030      6.042150      2.022370     0.012117    0.066142   -0.075213
            23    0       6.063750      4.029670      2.016290    -0.010670   -0.014324    0.027709
            24    0       6.094460      6.038430      0.017140    -0.185063    0.078157   -0.065853
            25    0       4.047490      0.003870      4.040130    -0.015326    0.018010   -0.006928
            26    0       4.030800      2.042290      6.061740     0.020482   -0.097323   -0.021969
            27    0       6.056610      0.008930      6.053770     0.007031   -0.031177    0.056306
            28    0       6.073450      1.999440      4.055950    -0.039446    0.071309   -0.014983
            29    0       4.045010      4.036100      4.049220    -0.002007    0.001449   -0.035801
            30    0       4.038930      6.085110      6.046240     0.036611   -0.086540    0.068788
            31    0       6.065010      4.035790      6.062810    -0.049465    0.003366   -0.013908
            32    0       6.067510      6.054200      4.018620    -0.008242    0.022969    0.068337
 Energy
       -119.308289247756
 PlusStress:  xx          yy          zz          yz          xz          xy
         0.74877     0.78480     0.75118    -0.02249     0.03405    -0.03753
 Feature   EFS_by	VASP
END_CFG

BEGIN_CFG
 Size
    32
 Supercell
         8.080400      0.000000      0.000000
         0.000000      8.080400      0.000000
         0.000000      0.000000      8.080400
 AtomData:  id type       cartes_x      cartes_y      cartes_z           fx          fy          fz
             1    0       8.080150      8.068530      8.059560    -0.022405    0.079544    0.097857
             2    0       8.073780      2.024920      2.025180     0.047183   -0.010612   -0.036552
             3    0       2.019430      0.015670      2.050290    -0.010820   -0.030130   -0.118671
             4    0       2.017230      2.014880      0.011220    -0.047748   -0.009235   -0.004290
             5    0       4.033300      0.005700      8.079260     0.033473   -0.065016    0.042479
             6    0       4.048680      2.023610      2.025570    -0.046844    0.025608    0.031319
             7    0       6.062010      0.030090      2.023660     0.021781   -0.117904   -0.001114
             8    0       6.042390      2.012400      0.021940     0.093188    0.011161   -0.130017
             9    0       8.065940      4.043660      8.051070     0.059248   -0.104737    0.111511
            10    0       8.067550      6.065670      2.021430     0.070375    0.003904    0.021808
            11    0       2.017030      4.059810      1.991200    -0.041101   -0.067647    0.086068
            12    0       2.003040      6.063570      8.069690     0.067116    0.011226    0.026173
            13    0       0.021060      8.077440      4.067840    -0.058252   -0.003499   -0.081144
            14    0       0.014940      2.020150      6.058590    -0.040616   -0.004815    0.058421
            15    0       2.014620      0.001760      6.074460     0.031083    0.023041   -0.068496
            16    0       2.028290      2.030610      4.031780    -0.010722    0.024103    0.040512
            17    0       8.064640      4.023160      4.052040     0.086780    0.056302   -0.060431
            18    0       8.059990      6.051990      6.059690     0.062437    0.023195   -0.081389
            19    0       2.018530      4.041980      6.073170    -0.026138    0.046032   -0.092408
            20    0       2.027830      6.070600      4.014020    -0.049905   -0.085408    0.118183
            21    0       4.023740      4.009880      8.060310     0.073662    0.155395    0.058582
            22    0       4.044980      6.037650      2.022920     0.015489    0.081947   -0.093807
            23    0       6.064630      4.027040      2.015350    -0.012953   -0.017730    0.034974
            24    0       6.102920      6.033010      0.021380    -0.231974    0.099709   -0.082001
            25    0       4.049290      0.004830      4.040110    -0.019005    0.023063   -0.009612
            26    0       4.028450      2.047780      6.062110     0.026453   -0.124068   -0.027482
            27    0       6.055710      0.011150      6.052180     0.009225   -0.038958    0.070610
            28    0       6.076740      1.994320      4.059860    -0.048870    0.089044   -0.018428
            29    0       4.046200      4.035080      4.051460    -0.002032    0.002370   -0.044239
            30    0       4.038620      6.091260      6.042760     0.044440   -0.107464    0.084183
            31    0       6.066180      4.034690      6.063430    -0.062462    0.003570   -0.017492
            32    0       6.069310      6.052690      4.013250    -0.010084    0.028012    0.084894
 Energy
       -119.293567156727
 PlusStress:  xx          yy          zz          yz          xz          xy
         0.90264     0.94986     0.91291    -0.03451     0.04679    -0.05498
 Feature   EFS_by	VASP
END_CFG

BEGIN_CFG
 Size
    32
 Supercell
         8.080400      0.000000      0.000000
         0.000000      8.080400      0.000000
         0.000000      0.000000      8.080400
 AtomData:  id type       cartes_x      cartes_y      cartes_z           fx          fy          fz
             1    0       8.080070      8.066200      8.055430    -0.028112    0.094966    0.116529
             2    0       8.072470      2.025860      2.026210     0.057363   -0.012717   -0.043417
             3    0       2.019300      0.018780      2.056250    -0.010380   -0.036063   -0.142729
             4    0       2.016660      2.013850      0.013450    -0.057719   -0.011812   -0.004686
             5    0       4.031930      0.006840      8.079040     0.038883   -0.076245    0.050928
             6    0       4.050340      2.024330      2.026680    -0.056603    0.030895    0.037838
             7    0       6.062380      0.036030      2.024380     0.025647   -0.143090   -0.001708
             8    0       6.038870      2.010870      0.026250     0.111441    0.013545   -0.156234
             9    0       8.063070      4.044310      8.045270     0.072971   -0.127570    0.132992
            10    0       8.065010      6.066720      2.021710     0.086518    0.005533    0.026714
            11    0       2.016410      4.063670      1.985480    -0.047429   -0.081361    0.102631
            12    0       1.999670      6.064230      8.067560     0.079163    0.012903    0.030079
            13    0       0.025220      8.076880      4.073310    -0.069513   -0.004346   -0.096832
            14    0       0.017880      2.020170      6.058280    -0.048031   -0.005855    0.069282
            15    0       2.013560      0.002130      6.077250     0.038845    0.027205   -0.080475
            16    0       2.029900      2.032720      4.030110    -0.013207    0.029577    0.049063
            17    0       8.061530      4.019780      4.054370     0.103056    0.066631   -0.071419
            18    0       8.055930      6.050350      6.059540     0.073413    0.027409   -0.097746
            19    0       2.018220      4.042340      6.075720    -0.032241    0.054519   -0.110941
            20    0       2.029380      6.072610      4.008840    -0.058813   -0.102176    0.140884
            21    0       4.020470      4.003910      8.056310     0.088293    0.188912    0.074450
            22    0       4.045920      6.033170      2.023450     0.019002    0.097401   -0.112229
            23    0       6.065510      4.024410      2.014420    -0.015034   -0.021073    0.042397
            24    0       6.111320      6.027610      0.025600    -0.281524    0.122867   -0.098138
            25    0       4.051080      0.005800      4.040090    -0.022481    0.028121   -0.012442
            26    0       4.026090      2.053230      6.062470     0.033167   -0.152433   -0.034055
            27    0       6.054820      0.013350      6.050610     0.011553   -0.046645    0.084994
            28    0       6.080030      1.989230      4.063760    -0.059804    0.107522   -0.022701
            29    0       4.047380      4.034080      4.053680    -0.001858    0.003412   -0.052417
            30    0       4.038320      6.097360      6.039300     0.051698   -0.127722    0.098710
            31    0       6.067340      4.033590      6.064050    -0.075676    0.003530   -0.021165
            32    0       6.071120      6.051190      4.007910    -0.012587    0.034158    0.101847
 Energy
       -119.275667005405
 PlusStress:  xx          yy          zz          yz          xz          xy
         1.06497     1.13151     1.09913    -0.05302     0.06035    -0.05757
 Feature   EFS_by	VASP
END_CFG

BEGIN_CFG
 Size
    32
 Supercell
         8.080400      0.000000      0.000000
         0.000000      8.080400      0.000000
         0.000000      0.000000      8.080400
 AtomData:  id type       cartes_x      cartes_y      cartes_z           fx          fy          fz
             1    0       8.079970      8.063890      8.051330    -0.034175    0.110127    0.134760
             2    0       8.071160      2.026790      2.027230     0.067766   -0.014753   -0.050093
             3    0       2.019180      0.021880      2.062170    -0.011157   -0.043070   -0.168483
             4    0       2.016090      2.012810      0.015680    -0.067124   -0.013173   -0.005671
             5    0       4.030570      0.007960      8.078830     0.043877   -0.086857    0.059368
             6    0       4.051970      2.025060      2.027780    -0.066375    0.036222    0.044480
             7    0       6.062760      0.041930      2.025090     0.029557   -0.168133   -0.002112
             8    0       6.035390      2.009350      0.030520     0.128876    0.017132   -0.183041
             9    0       8.060220      4.044940      8.039500     0.087395   -0.150502    0.155281
            10    0       8.062490      6.067750      2.022000     0.103308    0.007513    0.031795
            11    0       2.015790      4.067510      1.979810    -0.053687   -0.094734    0.118508
            12    0       1.996310      6.064900      8.065430     0.090662    0.014391    0.033491
            13    0       0.029350      8.076340      4.078760    -0.080471   -0.005343   -0.112248
            14    0       0.020810      2.020190      6.057970    -0.055155   -0.006876    0.079919
            15    0       2.012520      0.002510      6.080020     0.046594    0.031482   -0.092029
            16    0       2.031500      2.034840      4.028440    -0.015783    0.035286    0.057779
            17    0       8.058420      4.016420      4.056680     0.118951    0.076478   -0.082054
            18    0       8.051880      6.048700      6.059370     0.084725    0.032460   -0.112282
            19    0       2.017910      4.042720      6.078240    -0.038666    0.062707   -0.129379
            20    0       2.030920      6.074600      4.003690    -0.067324   -0.118780    0.163204
            21    0       4.017210      3.997980      8.052330     0.103580    0.221387    0.092790
            22    0       4.046870      6.028720      2.023980     0.022563    0.112436   -0.130525
            23    0       6.066390      4.021780      2.013500    -0.016931   -0.024382    0.049959
            24    0       6.119660      6.022240      0.029800    -0.331461    0.146753   -0.115459
            25    0       4.052850      0.006780      4.040070    -0.024985    0.032503   -0.014023
            26    0       4.023740      2.058630      6.062840     0.040209   -0.181742   -0.041397
            27    0       6.053950      0.015530      6.049080     0.013991   -0.054253    0.099386
            28    0       6.083320      1.984160      4.067640    -0.071344    0.127519   -0.028976
            29    0       4.048550      4.033080      4.055890    -0.001449    0.004620   -0.060344
            30    0       4.038020      6.103420      6.035870     0.058594   -0.150434    0.113364
            31    0       6.068500      4.032490      6.064660    -0.089163    0.003242   -0.024867
            32    0       6.072930      6.049700      4.002590    -0.015400    0.040772    0.118898
 Energy
       -119.254589984929
 PlusStress:  xx          yy          zz          yz          xz          xy
         1.24607     1.32208     1.29005    -0.06842     0.06739    -0.06021
 Feature   EFS_by	VASP
END_CFG

BEGIN_CFG
 Size
    32
 Supercell
         8.080400      0.000000      0.000000
         0.000000      8.080400      0.000000
         0.000000      0.000000      8.080400
 AtomData:  id type       cartes_x      cartes_y      cartes_z           fx          fy          fz
             1    0       8.079860      8.061620      8.047260    -0.040604    0.124944    0.152566
             2    0       8.069860      2.027710      2.028260     0.078336   -0.016737   -0.056629