BEGIN_CFG
 Size
    32
 Supercell
         8.095800      0.000000      0.000000
         0.000000      8.095800      0.000000
         0.000000      0.000000      8.095800
 AtomData:  id type       cartes_x      cartes_y      cartes_z           fx          fy          fz
             1    0       0.000000      0.000000      0.000000         -nan        -nan        -nan
             2    0       0.000000      2.023950      0.000000         -nan        -nan        -nan
             3    0       2.023950      0.000000      2.023950         -nan        -nan        -nan
             4    0       2.023950      2.023950      2.023950         -nan        -nan        -nan
             5    0       0.000000      0.000000      0.000000         -nan        -nan        -nan
             6    0       0.000000      2.023950      0.000000         -nan        -nan        -nan
             7    0       2.023950      0.000000      2.023950         -nan        -nan        -nan
             8    0       2.023950      2.023950      2.023950         -nan        -nan        -nan
             9    0       0.000000      4.047900      0.000000         -nan        -nan        -nan
            10    0       0.000000      6.071850      0.000000         -nan        -nan        -nan
            11    0       2.023950      4.047900      2.023950         -nan        -nan        -nan
            12    0       2.023950      6.071850      2.023950         -nan        -nan        -nan
            13    0       0.000000      4.047900      0.000000         -nan        -nan        -nan
            14    0       0.000000      6.071850      0.000000         -nan        -nan        -nan
            15    0       2.023950      4.047900      2.023950         -nan        -nan        -nan
            16    0       2.023950      6.071850      2.023950         -nan        -nan        -nan
            17    0       4.047900      0.000000      4.047900         -nan        -nan        -nan
            18    0       4.047900      2.023950      4.047900         -nan        -nan        -nan
            19    0       6.071850      0.000000      6.071850         -nan        -nan        -nan
            20    0       6.071850      2.023950      6.071850         -nan        -nan        -nan
            21    0       4.047900      0.000000      4.047900         -nan        -nan        -nan
            22    0       4.047900      2.023950      4.047900         -nan        -nan        -nan
            23    0       6.071850      0.000000      6.071850         -nan        -nan        -nan
            24    0       6.071850      2.023950      6.071850         -nan        -nan        -nan
            25    0       4.047900      4.047900      4.047900         -nan        -nan        -nan
            26    0       4.047900      6.071850      4.047900         -nan        -nan        -nan
            27    0       6.071850      4.047900      6.071850         -nan        -nan        -nan
            28    0       6.071850      6.071850      6.071850         -nan        -nan        -nan
            29    0       4.047900      4.047900      4.047900         -nan        -nan        -nan
            30    0       4.047900      6.071850      4.047900         -nan        -nan        -nan
            31    0       6.071850      4.047900      6.071850         -nan        -nan        -nan
            32    0       6.071850      6.071850      6.071850         -nan        -nan        -nan
 Energy
                    -nan
 PlusStress:  xx          yy          zz          yz          xz          xy
            -nan        -nan        -nan        -nan        -nan        -nan
 Feature   EFS_by	VASP
END_CFG

